+ 2.002 /NodeList/8/DeviceList/0/$ns3::CsmaNetDevice/TxQueue/Enqueue ns3::EthernetHeader ( length/type=0x806, source=00:00:00:00:00:06, destination=ff:ff:ff:ff:ff:ff) ns3::ArpHeader (request source mac: 00-06-00:00:00:00:00:06 source ipv4: 192.138.2.3 dest ipv4: 192.138.2.1) Payload (size=18) ns3::EthernetTrailer (fcs=0)
- 2.002 /NodeList/8/DeviceList/0/$ns3::CsmaNetDevice/TxQueue/Dequeue ns3::EthernetHeader ( length/type=0x806, source=00:00:00:00:00:06, destination=ff:ff:ff:ff:ff:ff) ns3::ArpHeader (request source mac: 00-06-00:00:00:00:00:06 source ipv4: 192.138.2.3 dest ipv4: 192.138.2.1) Payload (size=18) ns3::EthernetTrailer (fcs=0)
r 2.00208 /NodeList/8/DeviceList/0/$ns3::CsmaNetDevice/MacRx ns3::EthernetHeader ( length/type=0x806, source=00:00:00:00:00:04, destination=00:00:00:00:00:06) ns3::ArpHeader (reply source mac: 00-06-00:00:00:00:00:04 source ipv4: 192.138.2.1 dest mac: 00-06-00:00:00:00:00:06 dest ipv4: 192.138.2.3) Payload (size=18) ns3::EthernetTrailer (fcs=0)
+ 2.00208 /NodeList/8/DeviceList/0/$ns3::CsmaNetDevice/TxQueue/Enqueue ns3::EthernetHeader ( length/type=0x800, source=00:00:00:00:00:06, destination=00:00:00:00:00:04) ns3::Ipv4Header (tos 0x0 DSCP Default ECN Not-ECT ttl 64 id 0 protocol 6 offset (bytes) 0 flags [none] length: 56 192.138.2.3 > 192.138.1.3) ns3::TcpHeader (49153 > 2400 [SYN] Seq=0 Ack=0 Win=65535 ns3::TcpOptionTS(2000;0) ns3::TcpOptionWinScale(2) ns3::TcpOptionSackPermitted([sack_perm]) ns3::TcpOptionEnd(EOL)) ns3::EthernetTrailer (fcs=0)
- 2.00208 /NodeList/8/DeviceList/0/$ns3::CsmaNetDevice/TxQueue/Dequeue ns3::EthernetHeader ( length/type=0x800, source=00:00:00:00:00:06, destination=00:00:00:00:00:04) ns3::Ipv4Header (tos 0x0 DSCP Default ECN Not-ECT ttl 64 id 0 protocol 6 offset (bytes) 0 flags [none] length: 56 192.138.2.3 > 192.138.1.3) ns3::TcpHeader (49153 > 2400 [SYN] Seq=0 Ack=0 Win=65535 ns3::TcpOptionTS(2000;0) ns3::TcpOptionWinScale(2) ns3::TcpOptionSackPermitted([sack_perm]) ns3::TcpOptionEnd(EOL)) ns3::EthernetTrailer (fcs=0)
r 2.01739 /NodeList/8/DeviceList/0/$ns3::CsmaNetDevice/MacRx ns3::EthernetHeader ( length/type=0x806, source=00:00:00:00:00:04, destination=ff:ff:ff:ff:ff:ff) ns3::ArpHeader (request source mac: 00-06-00:00:00:00:00:04 source ipv4: 192.138.2.1 dest ipv4: 192.138.2.3) Payload (size=18) ns3::EthernetTrailer (fcs=0)
+ 2.01739 /NodeList/8/DeviceList/0/$ns3::CsmaNetDevice/TxQueue/Enqueue ns3::EthernetHeader ( length/type=0x806, source=00:00:00:00:00:06, destination=00:00:00:00:00:04) ns3::ArpHeader (reply source mac: 00-06-00:00:00:00:00:06 source ipv4: 192.138.2.3 dest mac: 00-06-00:00:00:00:00:04 dest ipv4: 192.138.2.1) Payload (size=18) ns3::EthernetTrailer (fcs=0)
- 2.01739 /NodeList/8/DeviceList/0/$ns3::CsmaNetDevice/TxQueue/Dequeue ns3::EthernetHeader ( length/type=0x806, source=00:00:00:00:00:06, destination=00:00:00:00:00:04) ns3::ArpHeader (reply source mac: 00-06-00:00:00:00:00:06 source ipv4: 192.138.2.3 dest mac: 00-06-00:00:00:00:00:04 dest ipv4: 192.138.2.1) Payload (size=18) ns3::EthernetTrailer (fcs=0)
r 2.01747 /NodeList/8/DeviceList/0/$ns3::CsmaNetDevice/MacRx ns3::EthernetHeader ( length/type=0x800, source=00:00:00:00:00:04, destination=00:00:00:00:00:06) ns3::Ipv4Header (tos 0x0 DSCP Default ECN Not-ECT ttl 61 id 0 protocol 6 offset (bytes) 0 flags [none] length: 56 192.138.1.3 > 192.138.2.3) ns3::TcpHeader (2400 > 49153 [SYN|ACK] Seq=0 Ack=1 Win=65535 ns3::TcpOptionTS(2006;2000) ns3::TcpOptionWinScale(2) ns3::TcpOptionSackPermitted([sack_perm]) ns3::TcpOptionEnd(EOL)) ns3::EthernetTrailer (fcs=0)
+ 2.01747 /NodeList/8/DeviceList/0/$ns3::CsmaNetDevice/TxQueue/Enqueue ns3::EthernetHeader ( length/type=0x800, source=00:00:00:00:00:06, destination=00:00:00:00:00:04) ns3::Ipv4Header (tos 0x0 DSCP Default ECN Not-ECT ttl 64 id 1 protocol 6 offset (bytes) 0 flags [none] length: 52 192.138.2.3 > 192.138.1.3) ns3::TcpHeader (49153 > 2400 [ACK] Seq=1 Ack=1 Win=32768 ns3::TcpOptionTS(2017;2006) ns3::TcpOptionEnd(EOL)) ns3::EthernetTrailer (fcs=0)
- 2.01747 /NodeList/8/DeviceList/0/$ns3::CsmaNetDevice/TxQueue/Dequeue ns3::EthernetHeader ( length/type=0x800, source=00:00:00:00:00:06, destination=00:00:00:00:00:04) ns3::Ipv4Header (tos 0x0 DSCP Default ECN Not-ECT ttl 64 id 1 protocol 6 offset (bytes) 0 flags [none] length: 52 192.138.2.3 > 192.138.1.3) ns3::TcpHeader (49153 > 2400 [ACK] Seq=1 Ack=1 Win=32768 ns3::TcpOptionTS(2017;2006) ns3::TcpOptionEnd(EOL)) ns3::EthernetTrailer (fcs=0)
+ 2.08947 /NodeList/8/DeviceList/0/$ns3::CsmaNetDevice/TxQueue/Enqueue ns3::EthernetHeader ( length/type=0x800, source=00:00:00:00:00:06, destination=00:00:00:00:00:04) ns3::Ipv4Header (tos 0x0 DSCP Default ECN Not-ECT ttl 64 id 2 protocol 6 offset (bytes) 0 flags [none] length: 588 192.138.2.3 > 192.138.1.3) ns3::TcpHeader (49153 > 2400 [ACK] Seq=1 Ack=1 Win=32768 ns3::TcpOptionTS(2089;2006) ns3::TcpOptionEnd(EOL)) Payload Fragment [0:536] ns3::EthernetTrailer (fcs=0)
- 2.08947 /NodeList/8/DeviceList/0/$ns3::CsmaNetDevice/TxQueue/Dequeue ns3::EthernetHeader ( length/type=0x800, source=00:00:00:00:00:06, destination=00:00:00:00:00:04) ns3::Ipv4Header (tos 0x0 DSCP Default ECN Not-ECT ttl 64 id 2 protocol 6 offset (bytes) 0 flags [none] length: 588 192.138.2.3 > 192.138.1.3) ns3::TcpHeader (49153 > 2400 [ACK] Seq=1 Ack=1 Win=32768 ns3::TcpOptionTS(2089;2006) ns3::TcpOptionEnd(EOL)) Payload Fragment [0:536] ns3::EthernetTrailer (fcs=0)
+ 2.08947 /NodeList/8/DeviceList/0/$ns3::CsmaNetDevice/TxQueue/Enqueue ns3::EthernetHeader ( length/type=0x800, source=00:00:00:00:00:06, destination=00:00:00:00:00:04) ns3::Ipv4Header (tos 0x0 DSCP Default ECN Not-ECT ttl 64 id 3 protocol 6 offset (bytes) 0 flags [none] length: 588 192.138.2.3 > 192.138.1.3) ns3::TcpHeader (49153 > 2400 [ACK] Seq=537 Ack=1 Win=32768 ns3::TcpOptionTS(2089;2006) ns3::TcpOptionEnd(EOL)) Payload Fragment [536:1072] ns3::EthernetTrailer (fcs=0)
+ 2.08947 /NodeList/8/DeviceList/0/$ns3::CsmaNetDevice/TxQueue/Enqueue ns3::EthernetHeader ( length/type=0x800, source=00:00:00:00:00:06, destination=00:00:00:00:00:04) ns3::Ipv4Header (tos 0x0 DSCP Default ECN Not-ECT ttl 64 id 4 protocol 6 offset (bytes) 0 flags [none] length: 588 192.138.2.3 > 192.138.1.3) ns3::TcpHeader (49153 > 2400 [ACK] Seq=1073 Ack=1 Win=32768 ns3::TcpOptionTS(2089;2006) ns3::TcpOptionEnd(EOL)) Payload Fragment [1072:1608] ns3::EthernetTrailer (fcs=0)
+ 2.08947 /NodeList/8/DeviceList/0/$ns3::CsmaNetDevice/TxQueue/Enqueue ns3::EthernetHeader ( length/type=0x800, source=00:00:00:00:00:06, destination=00:00:00:00:00:04) ns3::Ipv4Header (tos 0x0 DSCP Default ECN Not-ECT ttl 64 id 5 protocol 6 offset (bytes) 0 flags [none] length: 588 192.138.2.3 > 192.138.1.3) ns3::TcpHeader (49153 > 2400 [ACK] Seq=1609 Ack=1 Win=32768 ns3::TcpOptionTS(2089;2006) ns3::TcpOptionEnd(EOL)) Payload Fragment [1608:2144] ns3::EthernetTrailer (fcs=0)
+ 2.08947 /NodeList/8/DeviceList/0/$ns3::CsmaNetDevice/TxQueue/Enqueue ns3::EthernetHeader ( length/type=0x800, source=00:00:00:00:00:06, destination=00:00:00:00:00:04) ns3::Ipv4Header (tos 0x0 DSCP Default ECN Not-ECT ttl 64 id 6 protocol 6 offset (bytes) 0 flags [none] length: 588 192.138.2.3 > 192.138.1.3) ns3::TcpHeader (49153 > 2400 [ACK] Seq=2145 Ack=1 Win=32768 ns3::TcpOptionTS(2089;2006) ns3::TcpOptionEnd(EOL)) Payload Fragment [2144:2680] ns3::EthernetTrailer (fcs=0)
+ 2.08947 /NodeList/8/DeviceList/0/$ns3::CsmaNetDevice/TxQueue/Enqueue ns3::EthernetHeader ( length/type=0x800, source=00:00:00:00:00:06, destination=00:00:00:00:00:04) ns3::Ipv4Header (tos 0x0 DSCP Default ECN Not-ECT ttl 64 id 7 protocol 6 offset (bytes) 0 flags [none] length: 588 192.138.2.3 > 192.138.1.3) ns3::TcpHeader (49153 > 2400 [ACK] Seq=2681 Ack=1 Win=32768 ns3::TcpOptionTS(2089;2006) ns3::TcpOptionEnd(EOL)) Payload Fragment [2680:3216] ns3::EthernetTrailer (fcs=0)
+ 2.08947 /NodeList/8/DeviceList/0/$ns3::CsmaNetDevice/TxQueue/Enqueue ns3::EthernetHeader ( length/type=0x800, source=00:00:00:00:00:06, destination=00:00:00:00:00:04) ns3::Ipv4Header (tos 0x0 DSCP Default ECN Not-ECT ttl 64 id 8 protocol 6 offset (bytes) 0 flags [none] length: 588 192.138.2.3 > 192.138.1.3) ns3::TcpHeader (49153 > 2400 [ACK] Seq=3217 Ack=1 Win=32768 ns3::TcpOptionTS(2089;2006) ns3::TcpOptionEnd(EOL)) Payload Fragment [3216:3752] ns3::EthernetTrailer (fcs=0)
+ 2.08947 /NodeList/8/DeviceList/0/$ns3::CsmaNetDevice/TxQueue/Enqueue ns3::EthernetHeader ( length/type=0x800, source=00:00:00:00:00:06, destination=00:00:00:00:00:04) ns3::Ipv4Header (tos 0x0 DSCP Default ECN Not-ECT ttl 64 id 9 protocol 6 offset (bytes) 0 flags [none] length: 588 192.138.2.3 > 192.138.1.3) ns3::TcpHeader (49153 > 2400 [ACK] Seq=3753 Ack=1 Win=32768 ns3::TcpOptionTS(2089;2006) ns3::TcpOptionEnd(EOL)) Payload Fragment [3752:4288] ns3::EthernetTrailer (fcs=0)
+ 2.08947 /NodeList/8/DeviceList/0/$ns3::CsmaNetDevice/TxQueue/Enqueue ns3::EthernetHeader ( length/type=0x800, source=00:00:00:00:00:06, destination=00:00:00:00:00:04) ns3::Ipv4Header (tos 0x0 DSCP Default ECN Not-ECT ttl 64 id 10 protocol 6 offset (bytes) 0 flags [none] length: 264 192.138.2.3 > 192.138.1.3) ns3::TcpHeader (49153 > 2400 [ACK] Seq=4289 Ack=1 Win=32768 ns3::TcpOptionTS(2089;2006) ns3::TcpOptionEnd(EOL)) Payload Fragment [4288:4500] ns3::EthernetTrailer (fcs=0)
- 2.08963 /NodeList/8/DeviceList/0/$ns3::CsmaNetDevice/TxQueue/Dequeue ns3::EthernetHeader ( length/type=0x800, source=00:00:00:00:00:06, destination=00:00:00:00:00:04) ns3::Ipv4Header (tos 0x0 DSCP Default ECN Not-ECT ttl 64 id 3 protocol 6 offset (bytes) 0 flags [none] length: 588 192.138.2.3 > 192.138.1.3) ns3::TcpHeader (49153 > 2400 [ACK] Seq=537 Ack=1 Win=32768 ns3::TcpOptionTS(2089;2006) ns3::TcpOptionEnd(EOL)) Payload Fragment [536:1072] ns3::EthernetTrailer (fcs=0)
- 2.08982 /NodeList/8/DeviceList/0/$ns3::CsmaNetDevice/TxQueue/Dequeue ns3::EthernetHeader ( length/type=0x800, source=00:00:00:00:00:06, destination=00:00:00:00:00:04) ns3::Ipv4Header (tos 0x0 DSCP Default ECN Not-ECT ttl 64 id 4 protocol 6 offset (bytes) 0 flags [none] length: 588 192.138.2.3 > 192.138.1.3) ns3::TcpHeader (49153 > 2400 [ACK] Seq=1073 Ack=1 Win=32768 ns3::TcpOptionTS(2089;2006) ns3::TcpOptionEnd(EOL)) Payload Fragment [1072:1608] ns3::EthernetTrailer (fcs=0)
- 2.09006 /NodeList/8/DeviceList/0/$ns3::CsmaNetDevice/TxQueue/Dequeue ns3::EthernetHeader ( length/type=0x800, source=00:00:00:00:00:06, destination=00:00:00:00:00:04) ns3::Ipv4Header (tos 0x0 DSCP Default ECN Not-ECT ttl 64 id 5 protocol 6 offset (bytes) 0 flags [none] length: 588 192.138.2.3 > 192.138.1.3) ns3::TcpHeader (49153 > 2400 [ACK] Seq=1609 Ack=1 Win=32768 ns3::TcpOptionTS(2089;2006) ns3::TcpOptionEnd(EOL)) Payload Fragment [1608:2144] ns3::EthernetTrailer (fcs=0)
r 2.09012 /NodeList/8/DeviceList/0/$ns3::CsmaNetDevice/MacRx ns3::EthernetHeader ( length/type=0x800, source=00:00:00:00:00:04, destination=00:00:00:00:00:06) ns3::Ipv4Header (tos 0x0 DSCP Default ECN Not-ECT ttl 61 id 1 protocol 6 offset (bytes) 0 flags [none] length: 52 192.138.1.3 > 192.138.2.3) ns3::TcpHeader (2400 > 49153 [ACK] Seq=1 Ack=537 Win=32768 ns3::TcpOptionTS(2089;2089) ns3::TcpOptionEnd(EOL)) ns3::EthernetTrailer (fcs=0)
- 2.09033 /NodeList/8/DeviceList/0/$ns3::CsmaNetDevice/TxQueue/Dequeue ns3::EthernetHeader ( length/type=0x800, source=00:00:00:00:00:06, destination=00:00:00:00:00:04) ns3::Ipv4Header (tos 0x0 DSCP Default ECN Not-ECT ttl 64 id 6 protocol 6 offset (bytes) 0 flags [none] length: 588 192.138.2.3 > 192.138.1.3) ns3::TcpHeader (49153 > 2400 [ACK] Seq=2145 Ack=1 Win=32768 ns3::TcpOptionTS(2089;2006) ns3::TcpOptionEnd(EOL)) Payload Fragment [2144:2680] ns3::EthernetTrailer (fcs=0)
- 2.09052 /NodeList/8/DeviceList/0/$ns3::CsmaNetDevice/TxQueue/Dequeue ns3::EthernetHeader ( length/type=0x800, source=00:00:00:00:00:06, destination=00:00:00:00:00:04) ns3::Ipv4Header (tos 0x0 DSCP Default ECN Not-ECT ttl 64 id 7 protocol 6 offset (bytes) 0 flags [none] length: 588 192.138.2.3 > 192.138.1.3) ns3::TcpHeader (49153 > 2400 [ACK] Seq=2681 Ack=1 Win=32768 ns3::TcpOptionTS(2089;2006) ns3::TcpOptionEnd(EOL)) Payload Fragment [2680:3216] ns3::EthernetTrailer (fcs=0)
- 2.0907 /NodeList/8/DeviceList/0/$ns3::CsmaNetDevice/TxQueue/Dequeue ns3::EthernetHeader ( length/type=0x800, source=00:00:00:00:00:06, destination=00:00:00:00:00:04) ns3::Ipv4Header (tos 0x0 DSCP Default ECN Not-ECT ttl 64 id 8 protocol 6 offset (bytes) 0 flags [none] length: 588 192.138.2.3 > 192.138.1.3) ns3::TcpHeader (49153 > 2400 [ACK] Seq=3217 Ack=1 Win=32768 ns3::TcpOptionTS(2089;2006) ns3::TcpOptionEnd(EOL)) Payload Fragment [3216:3752] ns3::EthernetTrailer (fcs=0)
- 2.09088 /NodeList/8/DeviceList/0/$ns3::CsmaNetDevice/TxQueue/Dequeue ns3::EthernetHeader ( length/type=0x800, source=00:00:00:00:00:06, destination=00:00:00:00:00:04) ns3::Ipv4Header (tos 0x0 DSCP Default ECN Not-ECT ttl 64 id 9 protocol 6 offset (bytes) 0 flags [none] length: 588 192.138.2.3 > 192.138.1.3) ns3::TcpHeader (49153 > 2400 [ACK] Seq=3753 Ack=1 Win=32768 ns3::TcpOptionTS(2089;2006) ns3::TcpOptionEnd(EOL)) Payload Fragment [3752:4288] ns3::EthernetTrailer (fcs=0)
- 2.09107 /NodeList/8/DeviceList/0/$ns3::CsmaNetDevice/TxQueue/Dequeue ns3::EthernetHeader ( length/type=0x800, source=00:00:00:00:00:06, destination=00:00:00:00:00:04) ns3::Ipv4Header (tos 0x0 DSCP Default ECN Not-ECT ttl 64 id 10 protocol 6 offset (bytes) 0 flags [none] length: 264 192.138.2.3 > 192.138.1.3) ns3::TcpHeader (49153 > 2400 [ACK] Seq=4289 Ack=1 Win=32768 ns3::TcpOptionTS(2089;2006) ns3::TcpOptionEnd(EOL)) Payload Fragment [4288:4500] ns3::EthernetTrailer (fcs=0)
r 2.09134 /NodeList/8/DeviceList/0/$ns3::CsmaNetDevice/MacRx ns3::EthernetHeader ( length/type=0x800, source=00:00:00:00:00:04, destination=00:00:00:00:00:06) ns3::Ipv4Header (tos 0x0 DSCP Default ECN Not-ECT ttl 61 id 2 protocol 6 offset (bytes) 0 flags [none] length: 52 192.138.1.3 > 192.138.2.3) ns3::TcpHeader (2400 > 49153 [ACK] Seq=1 Ack=1609 Win=32768 ns3::TcpOptionTS(2090;2089) ns3::TcpOptionEnd(EOL)) ns3::EthernetTrailer (fcs=0)
r 2.09192 /NodeList/8/DeviceList/0/$ns3::CsmaNetDevice/MacRx ns3::EthernetHeader ( length/type=0x800, source=00:00:00:00:00:04, destination=00:00:00:00:00:06) ns3::Ipv4Header (tos 0x0 DSCP Default ECN Not-ECT ttl 61 id 3 protocol 6 offset (bytes) 0 flags [none] length: 52 192.138.1.3 > 192.138.2.3) ns3::TcpHeader (2400 > 49153 [ACK] Seq=1 Ack=2681 Win=32768 ns3::TcpOptionTS(2090;2089) ns3::TcpOptionEnd(EOL)) ns3::EthernetTrailer (fcs=0)
r 2.09196 /NodeList/8/DeviceList/0/$ns3::CsmaNetDevice/MacRx ns3::EthernetHeader ( length/type=0x800, source=00:00:00:00:00:04, destination=00:00:00:00:00:06) ns3::Ipv4Header (tos 0x0 DSCP Default ECN Not-ECT ttl 61 id 4 protocol 6 offset (bytes) 0 flags [none] length: 52 192.138.1.3 > 192.138.2.3) ns3::TcpHeader (2400 > 49153 [ACK] Seq=1 Ack=3753 Win=32768 ns3::TcpOptionTS(2091;2089) ns3::TcpOptionEnd(EOL)) ns3::EthernetTrailer (fcs=0)
r 2.092 /NodeList/8/DeviceList/0/$ns3::CsmaNetDevice/MacRx ns3::EthernetHeader ( length/type=0x800, source=00:00:00:00:00:04, destination=00:00:00:00:00:06) ns3::Ipv4Header (tos 0x0 DSCP Default ECN Not-ECT ttl 61 id 5 protocol 6 offset (bytes) 0 flags [none] length: 52 192.138.1.3 > 192.138.2.3) ns3::TcpHeader (2400 > 49153 [ACK] Seq=1 Ack=4501 Win=32768 ns3::TcpOptionTS(2091;2089) ns3::TcpOptionEnd(EOL)) ns3::EthernetTrailer (fcs=0)
+ 2.16147 /NodeList/8/DeviceList/0/$ns3::CsmaNetDevice/TxQueue/Enqueue ns3::EthernetHeader ( length/type=0x800, source=00:00:00:00:00:06, destination=00:00:00:00:00:04) ns3::Ipv4Header (tos 0x0 DSCP Default ECN Not-ECT ttl 64 id 11 protocol 6 offset (bytes) 0 flags [none] length: 588 192.138.2.3 > 192.138.1.3) ns3::TcpHeader (49153 > 2400 [ACK] Seq=4501 Ack=1 Win=32768 ns3::TcpOptionTS(2161;2091) ns3::TcpOptionEnd(EOL)) Payload Fragment [0:536] ns3::EthernetTrailer (fcs=0)
- 2.16147 /NodeList/8/DeviceList/0/$ns3::CsmaNetDevice/TxQueue/Dequeue ns3::EthernetHeader ( length/type=0x800, source=00:00:00:00:00:06, destination=00:00:00:00:00:04) ns3::Ipv4Header (tos 0x0 DSCP Default ECN Not-ECT ttl 64 id 11 protocol 6 offset (bytes) 0 flags [none] length: 588 192.138.2.3 > 192.138.1.3) ns3::TcpHeader (49153 > 2400 [ACK] Seq=4501 Ack=1 Win=32768 ns3::TcpOptionTS(2161;2091) ns3::TcpOptionEnd(EOL)) Payload Fragment [0:536] ns3::EthernetTrailer (fcs=0)
+ 2.16147 /NodeList/8/DeviceList/0/$ns3::CsmaNetDevice/TxQueue/Enqueue ns3::EthernetHeader ( length/type=0x800, source=00:00:00:00:00:06, destination=00:00:00:00:00:04) ns3::Ipv4Header (tos 0x0 DSCP Default ECN Not-ECT ttl 64 id 12 protocol 6 offset (bytes) 0 flags [none] length: 588 192.138.2.3 > 192.138.1.3) ns3::TcpHeader (49153 > 2400 [ACK] Seq=5037 Ack=1 Win=32768 ns3::TcpOptionTS(2161;2091) ns3::TcpOptionEnd(EOL)) Payload Fragment [536:1072] ns3::EthernetTrailer (fcs=0)
+ 2.16147 /NodeList/8/DeviceList/0/$ns3::CsmaNetDevice/TxQueue/Enqueue ns3::EthernetHeader ( length/type=0x800, source=00:00:00:00:00:06, destination=00:00:00:00:00:04) ns3::Ipv4Header (tos 0x0 DSCP Default ECN Not-ECT ttl 64 id 13 protocol 6 offset (bytes) 0 flags [none] length: 588 192.138.2.3 > 192.138.1.3) ns3::TcpHeader (49153 > 2400 [ACK] Seq=5573 Ack=1 Win=32768 ns3::TcpOptionTS(2161;2091) ns3::TcpOptionEnd(EOL)) Payload Fragment [1072:1608] ns3::EthernetTrailer (fcs=0)
+ 2.16147 /NodeList/8/DeviceList/0/$ns3::CsmaNetDevice/TxQueue/Enqueue ns3::EthernetHeader ( length/type=0x800, source=00:00:00:00:00:06, destination=00:00:00:00:00:04) ns3::Ipv4Header (tos 0x0 DSCP Default ECN Not-ECT ttl 64 id 14 protocol 6 offset (bytes) 0 flags [none] length: 588 192.138.2.3 > 192.138.1.3) ns3::TcpHeader (49153 > 2400 [ACK] Seq=6109 Ack=1 Win=32768 ns3::TcpOptionTS(2161;2091) ns3::TcpOptionEnd(EOL)) Payload Fragment [1608:2144] ns3::EthernetTrailer (fcs=0)
+ 2.16147 /NodeList/8/DeviceList/0/$ns3::CsmaNetDevice/TxQueue/Enqueue ns3::EthernetHeader ( length/type=0x800, source=00:00:00:00:00:06, destination=00:00:00:00:00:04) ns3::Ipv4Header (tos 0x0 DSCP Default ECN Not-ECT ttl 64 id 15 protocol 6 offset (bytes) 0 flags [none] length: 588 192.138.2.3 > 192.138.1.3) ns3::TcpHeader (49153 > 2400 [ACK] Seq=6645 Ack=1 Win=32768 ns3::TcpOptionTS(2161;2091) ns3::TcpOptionEnd(EOL)) Payload Fragment [2144:2680] ns3::EthernetTrailer (fcs=0)
+ 2.16147 /NodeList/8/DeviceList/0/$ns3::CsmaNetDevice/TxQueue/Enqueue ns3::EthernetHeader ( length/type=0x800, source=00:00:00:00:00:06, destination=00:00:00:00:00:04) ns3::Ipv4Header (tos 0x0 DSCP Default ECN Not-ECT ttl 64 id 16 protocol 6 offset (bytes) 0 flags [none] length: 588 192.138.2.3 > 192.138.1.3) ns3::TcpHeader (49153 > 2400 [ACK] Seq=7181 Ack=1 Win=32768 ns3::TcpOptionTS(2161;2091) ns3::TcpOptionEnd(EOL)) Payload Fragment [2680:3216] ns3::EthernetTrailer (fcs=0)
+ 2.16147 /NodeList/8/DeviceList/0/$ns3::CsmaNetDevice/TxQueue/Enqueue ns3::EthernetHeader ( length/type=0x800, source=00:00:00:00:00:06, destination=00:00:00:00:00:04) ns3::Ipv4Header (tos 0x0 DSCP Default ECN Not-ECT ttl 64 id 17 protocol 6 offset (bytes) 0 flags [none] length: 588 192.138.2.3 > 192.138.1.3) ns3::TcpHeader (49153 > 2400 [ACK] Seq=7717 Ack=1 Win=32768 ns3::TcpOptionTS(2161;2091) ns3::TcpOptionEnd(EOL)) Payload Fragment [3216:3752] ns3::EthernetTrailer (fcs=0)
+ 2.16147 /NodeList/8/DeviceList/0/$ns3::CsmaNetDevice/TxQueue/Enqueue ns3::EthernetHeader ( length/type=0x800, source=00:00:00:00:00:06, destination=00:00:00:00:00:04) ns3::Ipv4Header (tos 0x0 DSCP Default ECN Not-ECT ttl 64 id 18 protocol 6 offset (bytes) 0 flags [none] length: 588 192.138.2.3 > 192.138.1.3) ns3::TcpHeader (49153 > 2400 [ACK] Seq=8253 Ack=1 Win=32768 ns3::TcpOptionTS(2161;2091) ns3::TcpOptionEnd(EOL)) Payload Fragment [3752:4288] ns3::EthernetTrailer (fcs=0)
+ 2.16147 /NodeList/8/DeviceList/0/$ns3::CsmaNetDevice/TxQueue/Enqueue ns3::EthernetHeader ( length/type=0x800, source=00:00:00:00:00:06, destination=00:00:00:00:00:04) ns3::Ipv4Header (tos 0x0 DSCP Default ECN Not-ECT ttl 64 id 19 protocol 6 offset (bytes) 0 flags [none] length: 264 192.138.2.3 > 192.138.1.3) ns3::TcpHeader (49153 > 2400 [ACK] Seq=8789 Ack=1 Win=32768 ns3::TcpOptionTS(2161;2091) ns3::TcpOptionEnd(EOL)) Payload Fragment [4288:4500] ns3::EthernetTrailer (fcs=0)
- 2.16163 /NodeList/8/DeviceList/0/$ns3::CsmaNetDevice/TxQueue/Dequeue ns3::EthernetHeader ( length/type=0x800, source=00:00:00:00:00:06, destination=00:00:00:00:00:04) ns3::Ipv4Header (tos 0x0 DSCP Default ECN Not-ECT ttl 64 id 12 protocol 6 offset (bytes) 0 flags [none] length: 588 192.138.2.3 > 192.138.1.3) ns3::TcpHeader (49153 > 2400 [ACK] Seq=5037 Ack=1 Win=32768 ns3::TcpOptionTS(2161;2091) ns3::TcpOptionEnd(EOL)) Payload Fragment [536:1072] ns3::EthernetTrailer (fcs=0)
- 2.16182 /NodeList/8/DeviceList/0/$ns3::CsmaNetDevice/TxQueue/Dequeue ns3::EthernetHeader ( length/type=0x800, source=00:00:00:00:00:06, destination=00:00:00:00:00:04) ns3::Ipv4Header (tos 0x0 DSCP Default ECN Not-ECT ttl 64 id 13 protocol 6 offset (bytes) 0 flags [none] length: 588 192.138.2.3 > 192.138.1.3) ns3::TcpHeader (49153 > 2400 [ACK] Seq=5573 Ack=1 Win=32768 ns3::TcpOptionTS(2161;2091) ns3::TcpOptionEnd(EOL)) Payload Fragment [1072:1608] ns3::EthernetTrailer (fcs=0)
- 2.16201 /NodeList/8/DeviceList/0/$ns3::CsmaNetDevice/TxQueue/Dequeue ns3::EthernetHeader ( length/type=0x800, source=00:00:00:00:00:06, destination=00:00:00:00:00:04) ns3::Ipv4Header (tos 0x0 DSCP Default ECN Not-ECT ttl 64 id 14 protocol 6 offset (bytes) 0 flags [none] length: 588 192.138.2.3 > 192.138.1.3) ns3::TcpHeader (49153 > 2400 [ACK] Seq=6109 Ack=1 Win=32768 ns3::TcpOptionTS(2161;2091) ns3::TcpOptionEnd(EOL)) Payload Fragment [1608:2144] ns3::EthernetTrailer (fcs=0)
- 2.1622 /NodeList/8/DeviceList/0/$ns3::CsmaNetDevice/TxQueue/Dequeue ns3::EthernetHeader ( length/type=0x800, source=00:00:00:00:00:06, destination=00:00:00:00:00:04) ns3::Ipv4Header (tos 0x0 DSCP Default ECN Not-ECT ttl 64 id 15 protocol 6 offset (bytes) 0 flags [none] length: 588 192.138.2.3 > 192.138.1.3) ns3::TcpHeader (49153 > 2400 [ACK] Seq=6645 Ack=1 Win=32768 ns3::TcpOptionTS(2161;2091) ns3::TcpOptionEnd(EOL)) Payload Fragment [2144:2680] ns3::EthernetTrailer (fcs=0)
- 2.1624 /NodeList/8/DeviceList/0/$ns3::CsmaNetDevice/TxQueue/Dequeue ns3::EthernetHeader ( length/type=0x800, source=00:00:00:00:00:06, destination=00:00:00:00:00:04) ns3::Ipv4Header (tos 0x0 DSCP Default ECN Not-ECT ttl 64 id 16 protocol 6 offset (bytes) 0 flags [none] length: 588 192.138.2.3 > 192.138.1.3) ns3::TcpHeader (49153 > 2400 [ACK] Seq=7181 Ack=1 Win=32768 ns3::TcpOptionTS(2161;2091) ns3::TcpOptionEnd(EOL)) Payload Fragment [2680:3216] ns3::EthernetTrailer (fcs=0)
- 2.1626 /NodeList/8/DeviceList/0/$ns3::CsmaNetDevice/TxQueue/Dequeue ns3::EthernetHeader ( length/type=0x800, source=00:00:00:00:00:06, destination=00:00:00:00:00:04) ns3::Ipv4Header (tos 0x0 DSCP Default ECN Not-ECT ttl 64 id 17 protocol 6 offset (bytes) 0 flags [none] length: 588 192.138.2.3 > 192.138.1.3) ns3::TcpHeader (49153 > 2400 [ACK] Seq=7717 Ack=1 Win=32768 ns3::TcpOptionTS(2161;2091) ns3::TcpOptionEnd(EOL)) Payload Fragment [3216:3752] ns3::EthernetTrailer (fcs=0)
- 2.1628 /NodeList/8/DeviceList/0/$ns3::CsmaNetDevice/TxQueue/Dequeue ns3::EthernetHeader ( length/type=0x800, source=00:00:00:00:00:06, destination=00:00:00:00:00:04) ns3::Ipv4Header (tos 0x0 DSCP Default ECN Not-ECT ttl 64 id 18 protocol 6 offset (bytes) 0 flags [none] length: 588 192.138.2.3 > 192.138.1.3) ns3::TcpHeader (49153 > 2400 [ACK] Seq=8253 Ack=1 Win=32768 ns3::TcpOptionTS(2161;2091) ns3::TcpOptionEnd(EOL)) Payload Fragment [3752:4288] ns3::EthernetTrailer (fcs=0)
- 2.163 /NodeList/8/DeviceList/0/$ns3::CsmaNetDevice/TxQueue/Dequeue ns3::EthernetHeader ( length/type=0x800, source=00:00:00:00:00:06, destination=00:00:00:00:00:04) ns3::Ipv4Header (tos 0x0 DSCP Default ECN Not-ECT ttl 64 id 19 protocol 6 offset (bytes) 0 flags [none] length: 264 192.138.2.3 > 192.138.1.3) ns3::TcpHeader (49153 > 2400 [ACK] Seq=8789 Ack=1 Win=32768 ns3::TcpOptionTS(2161;2091) ns3::TcpOptionEnd(EOL)) Payload Fragment [4288:4500] ns3::EthernetTrailer (fcs=0)
r 2.16317 /NodeList/8/DeviceList/0/$ns3::CsmaNetDevice/MacRx ns3::EthernetHeader ( length/type=0x800, source=00:00:00:00:00:04, destination=00:00:00:00:00:06) ns3::Ipv4Header (tos 0x0 DSCP Default ECN Not-ECT ttl 61 id 6 protocol 6 offset (bytes) 0 flags [none] length: 52 192.138.1.3 > 192.138.2.3) ns3::TcpHeader (2400 > 49153 [ACK] Seq=1 Ack=5573 Win=32768 ns3::TcpOptionTS(2162;2161) ns3::TcpOptionEnd(EOL)) ns3::EthernetTrailer (fcs=0)
r 2.16321 /NodeList/8/DeviceList/0/$ns3::CsmaNetDevice/MacRx ns3::EthernetHeader ( length/type=0x800, source=00:00:00:00:00:04, destination=00:00:00:00:00:06) ns3::Ipv4Header (tos 0x0 DSCP Default ECN Not-ECT ttl 61 id 7 protocol 6 offset (bytes) 0 flags [none] length: 52 192.138.1.3 > 192.138.2.3) ns3::TcpHeader (2400 > 49153 [ACK] Seq=1 Ack=6645 Win=32768 ns3::TcpOptionTS(2162;2161) ns3::TcpOptionEnd(EOL)) ns3::EthernetTrailer (fcs=0)
r 2.16325 /NodeList/8/DeviceList/0/$ns3::CsmaNetDevice/MacRx ns3::EthernetHeader ( length/type=0x800, source=00:00:00:00:00:04, destination=00:00:00:00:00:06) ns3::Ipv4Header (tos 0x0 DSCP Default ECN Not-ECT ttl 61 id 8 protocol 6 offset (bytes) 0 flags [none] length: 52 192.138.1.3 > 192.138.2.3) ns3::TcpHeader (2400 > 49153 [ACK] Seq=1 Ack=7717 Win=32768 ns3::TcpOptionTS(2163;2161) ns3::TcpOptionEnd(EOL)) ns3::EthernetTrailer (fcs=0)
r 2.16367 /NodeList/8/DeviceList/0/$ns3::CsmaNetDevice/MacRx ns3::EthernetHeader ( length/type=0x800, source=00:00:00:00:00:04, destination=00:00:00:00:00:06) ns3::Ipv4Header (tos 0x0 DSCP Default ECN Not-ECT ttl 61 id 9 protocol 6 offset (bytes) 0 flags [none] length: 52 192.138.1.3 > 192.138.2.3) ns3::TcpHeader (2400 > 49153 [ACK] Seq=1 Ack=8789 Win=32768 ns3::TcpOptionTS(2163;2161) ns3::TcpOptionEnd(EOL)) ns3::EthernetTrailer (fcs=0)
+ 2.23347 /NodeList/8/DeviceList/0/$ns3::CsmaNetDevice/TxQueue/Enqueue ns3::EthernetHeader ( length/type=0x800, source=00:00:00:00:00:06, destination=00:00:00:00:00:04) ns3::Ipv4Header (tos 0x0 DSCP Default ECN Not-ECT ttl 64 id 20 protocol 6 offset (bytes) 0 flags [none] length: 588 192.138.2.3 > 192.138.1.3) ns3::TcpHeader (49153 > 2400 [ACK] Seq=9001 Ack=1 Win=32768 ns3::TcpOptionTS(2233;2163) ns3::TcpOptionEnd(EOL)) Payload Fragment [0:536] ns3::EthernetTrailer (fcs=0)
- 2.23347 /NodeList/8/DeviceList/0/$ns3::CsmaNetDevice/TxQueue/Dequeue ns3::EthernetHeader ( length/type=0x800, source=00:00:00:00:00:06, destination=00:00:00:00:00:04) ns3::Ipv4Header (tos 0x0 DSCP Default ECN Not-ECT ttl 64 id 20 protocol 6 offset (bytes) 0 flags [none] length: 588 192.138.2.3 > 192.138.1.3) ns3::TcpHeader (49153 > 2400 [ACK] Seq=9001 Ack=1 Win=32768 ns3::TcpOptionTS(2233;2163) ns3::TcpOptionEnd(EOL)) Payload Fragment [0:536] ns3::EthernetTrailer (fcs=0)
+ 2.23347 /NodeList/8/DeviceList/0/$ns3::CsmaNetDevice/TxQueue/Enqueue ns3::EthernetHeader ( length/type=0x800, source=00:00:00:00:00:06, destination=00:00:00:00:00:04) ns3::Ipv4Header (tos 0x0 DSCP Default ECN Not-ECT ttl 64 id 21 protocol 6 offset (bytes) 0 flags [none] length: 588 192.138.2.3 > 192.138.1.3) ns3::TcpHeader (49153 > 2400 [ACK] Seq=9537 Ack=1 Win=32768 ns3::TcpOptionTS(2233;2163) ns3::TcpOptionEnd(EOL)) Payload Fragment [536:1072] ns3::EthernetTrailer (fcs=0)
+ 2.23347 /NodeList/8/DeviceList/0/$ns3::CsmaNetDevice/TxQueue/Enqueue ns3::EthernetHeader ( length/type=0x800, source=00:00:00:00:00:06, destination=00:00:00:00:00:04) ns3::Ipv4Header (tos 0x0 DSCP Default ECN Not-ECT ttl 64 id 22 protocol 6 offset (bytes) 0 flags [none] length: 588 192.138.2.3 > 192.138.1.3) ns3::TcpHeader (49153 > 2400 [ACK] Seq=10073 Ack=1 Win=32768 ns3::TcpOptionTS(2233;2163) ns3::TcpOptionEnd(EOL)) Payload Fragment [1072:1608] ns3::EthernetTrailer (fcs=0)
+ 2.23347 /NodeList/8/DeviceList/0/$ns3::CsmaNetDevice/TxQueue/Enqueue ns3::EthernetHeader ( length/type=0x800, source=00:00:00:00:00:06, destination=00:00:00:00:00:04) ns3::Ipv4Header (tos 0x0 DSCP Default ECN Not-ECT ttl 64 id 23 protocol 6 offset (bytes) 0 flags [none] length: 588 192.138.2.3 > 192.138.1.3) ns3::TcpHeader (49153 > 2400 [ACK] Seq=10609 Ack=1 Win=32768 ns3::TcpOptionTS(2233;2163) ns3::TcpOptionEnd(EOL)) Payload Fragment [1608:2144] ns3::EthernetTrailer (fcs=0)
+ 2.23347 /NodeList/8/DeviceList/0/$ns3::CsmaNetDevice/TxQueue/Enqueue ns3::EthernetHeader ( length/type=0x800, source=00:00:00:00:00:06, destination=00:00:00:00:00:04) ns3::Ipv4Header (tos 0x0 DSCP Default ECN Not-ECT ttl 64 id 24 protocol 6 offset (bytes) 0 flags [none] length: 588 192.138.2.3 > 192.138.1.3) ns3::TcpHeader (49153 > 2400 [ACK] Seq=11145 Ack=1 Win=32768 ns3::TcpOptionTS(2233;2163) ns3::TcpOptionEnd(EOL)) Payload Fragment [2144:2680] ns3::EthernetTrailer (fcs=0)
+ 2.23347 /NodeList/8/DeviceList/0/$ns3::CsmaNetDevice/TxQueue/Enqueue ns3::EthernetHeader ( length/type=0x800, source=00:00:00:00:00:06, destination=00:00:00:00:00:04) ns3::Ipv4Header (tos 0x0 DSCP Default ECN Not-ECT ttl 64 id 25 protocol 6 offset (bytes) 0 flags [none] length: 588 192.138.2.3 > 192.138.1.3) ns3::TcpHeader (49153 > 2400 [ACK] Seq=11681 Ack=1 Win=32768 ns3::TcpOptionTS(2233;2163) ns3::TcpOptionEnd(EOL)) Payload Fragment [2680:3216] ns3::EthernetTrailer (fcs=0)
+ 2.23347 /NodeList/8/DeviceList/0/$ns3::CsmaNetDevice/TxQueue/Enqueue ns3::EthernetHeader ( length/type=0x800, source=00:00:00:00:00:06, destination=00:00:00:00:00:04) ns3::Ipv4Header (tos 0x0 DSCP Default ECN Not-ECT ttl 64 id 26 protocol 6 offset (bytes) 0 flags [none] length: 588 192.138.2.3 > 192.138.1.3) ns3::TcpHeader (49153 > 2400 [ACK] Seq=12217 Ack=1 Win=32768 ns3::TcpOptionTS(2233;2163) ns3::TcpOptionEnd(EOL)) Payload Fragment [3216:3752] ns3::EthernetTrailer (fcs=0)