r 3.00204 /NodeList/7/DeviceList/0/$ns3::CsmaNetDevice/MacRx ns3::EthernetHeader ( length/type=0x806, source=00:00:00:00:00:06, destination=ff:ff:ff:ff:ff:ff) ns3::ArpHeader (request source mac: 00-06-00:00:00:00:00:06 source ipv4: 192.138.2.3 dest ipv4: 192.138.2.1) Payload (size=18) ns3::EthernetTrailer (fcs=0)
r 3.01608 /NodeList/7/DeviceList/0/$ns3::CsmaNetDevice/MacRx ns3::EthernetHeader ( length/type=0x806, source=00:00:00:00:00:04, destination=ff:ff:ff:ff:ff:ff) ns3::ArpHeader (request source mac: 00-06-00:00:00:00:00:04 source ipv4: 192.138.2.1 dest ipv4: 192.138.2.3) Payload (size=18) ns3::EthernetTrailer (fcs=0)
+ 5.05 /NodeList/7/DeviceList/0/$ns3::CsmaNetDevice/TxQueue/Enqueue ns3::EthernetHeader ( length/type=0x806, source=00:00:00:00:00:05, destination=ff:ff:ff:ff:ff:ff) ns3::ArpHeader (request source mac: 00-06-00:00:00:00:00:05 source ipv4: 192.138.2.2 dest ipv4: 192.138.2.1) Payload (size=18) ns3::EthernetTrailer (fcs=0)
- 5.05 /NodeList/7/DeviceList/0/$ns3::CsmaNetDevice/TxQueue/Dequeue ns3::EthernetHeader ( length/type=0x806, source=00:00:00:00:00:05, destination=ff:ff:ff:ff:ff:ff) ns3::ArpHeader (request source mac: 00-06-00:00:00:00:00:05 source ipv4: 192.138.2.2 dest ipv4: 192.138.2.1) Payload (size=18) ns3::EthernetTrailer (fcs=0)
r 5.05008 /NodeList/7/DeviceList/0/$ns3::CsmaNetDevice/MacRx ns3::EthernetHeader ( length/type=0x806, source=00:00:00:00:00:04, destination=00:00:00:00:00:05) ns3::ArpHeader (reply source mac: 00-06-00:00:00:00:00:04 source ipv4: 192.138.2.1 dest mac: 00-06-00:00:00:00:00:05 dest ipv4: 192.138.2.2) Payload (size=18) ns3::EthernetTrailer (fcs=0)
+ 5.05008 /NodeList/7/DeviceList/0/$ns3::CsmaNetDevice/TxQueue/Enqueue ns3::EthernetHeader ( length/type=0x800, source=00:00:00:00:00:05, destination=00:00:00:00:00:04) ns3::Ipv4Header (tos 0x0 DSCP Default ECN Not-ECT ttl 64 id 0 protocol 17 offset (bytes) 0 flags [MF] length: 1500 192.138.2.2 > 192.138.1.1) ns3::UdpHeader (length: 3008 49153 > 2500) Payload Fragment [0:1472] ns3::EthernetTrailer (fcs=0)
- 5.05008 /NodeList/7/DeviceList/0/$ns3::CsmaNetDevice/TxQueue/Dequeue ns3::EthernetHeader ( length/type=0x800, source=00:00:00:00:00:05, destination=00:00:00:00:00:04) ns3::Ipv4Header (tos 0x0 DSCP Default ECN Not-ECT ttl 64 id 0 protocol 17 offset (bytes) 0 flags [MF] length: 1500 192.138.2.2 > 192.138.1.1) ns3::UdpHeader (length: 3008 49153 > 2500) Payload Fragment [0:1472] ns3::EthernetTrailer (fcs=0)
+ 5.05008 /NodeList/7/DeviceList/0/$ns3::CsmaNetDevice/TxQueue/Enqueue ns3::EthernetHeader ( length/type=0x800, source=00:00:00:00:00:05, destination=00:00:00:00:00:04) ns3::Ipv4Header (tos 0x0 DSCP Default ECN Not-ECT ttl 64 id 0 protocol 17 offset (bytes) 1480 flags [MF] length: 1500 192.138.2.2 > 192.138.1.1) Payload Fragment [1472:2952] ns3::EthernetTrailer (fcs=0)
+ 5.05008 /NodeList/7/DeviceList/0/$ns3::CsmaNetDevice/TxQueue/Enqueue ns3::EthernetHeader ( length/type=0x800, source=00:00:00:00:00:05, destination=00:00:00:00:00:04) ns3::Ipv4Header (tos 0x0 DSCP Default ECN Not-ECT ttl 64 id 0 protocol 17 offset (bytes) 2960 flags [none] length: 68 192.138.2.2 > 192.138.1.1) Payload Fragment [2952:3000] ns3::EthernetTrailer (fcs=0)
- 5.05048 /NodeList/7/DeviceList/0/$ns3::CsmaNetDevice/TxQueue/Dequeue ns3::EthernetHeader ( length/type=0x800, source=00:00:00:00:00:05, destination=00:00:00:00:00:04) ns3::Ipv4Header (tos 0x0 DSCP Default ECN Not-ECT ttl 64 id 0 protocol 17 offset (bytes) 1480 flags [MF] length: 1500 192.138.2.2 > 192.138.1.1) Payload Fragment [1472:2952] ns3::EthernetTrailer (fcs=0)
- 5.05093 /NodeList/7/DeviceList/0/$ns3::CsmaNetDevice/TxQueue/Dequeue ns3::EthernetHeader ( length/type=0x800, source=00:00:00:00:00:05, destination=00:00:00:00:00:04) ns3::Ipv4Header (tos 0x0 DSCP Default ECN Not-ECT ttl 64 id 0 protocol 17 offset (bytes) 2960 flags [none] length: 68 192.138.2.2 > 192.138.1.1) Payload Fragment [2952:3000] ns3::EthernetTrailer (fcs=0)
+ 5.096 /NodeList/7/DeviceList/0/$ns3::CsmaNetDevice/TxQueue/Enqueue ns3::EthernetHeader ( length/type=0x800, source=00:00:00:00:00:05, destination=00:00:00:00:00:04) ns3::Ipv4Header (tos 0x0 DSCP Default ECN Not-ECT ttl 64 id 1 protocol 17 offset (bytes) 0 flags [MF] length: 1500 192.138.2.2 > 192.138.1.1) ns3::UdpHeader (length: 3008 49153 > 2500) Payload Fragment [0:1472] ns3::EthernetTrailer (fcs=0)
- 5.096 /NodeList/7/DeviceList/0/$ns3::CsmaNetDevice/TxQueue/Dequeue ns3::EthernetHeader ( length/type=0x800, source=00:00:00:00:00:05, destination=00:00:00:00:00:04) ns3::Ipv4Header (tos 0x0 DSCP Default ECN Not-ECT ttl 64 id 1 protocol 17 offset (bytes) 0 flags [MF] length: 1500 192.138.2.2 > 192.138.1.1) ns3::UdpHeader (length: 3008 49153 > 2500) Payload Fragment [0:1472] ns3::EthernetTrailer (fcs=0)
+ 5.096 /NodeList/7/DeviceList/0/$ns3::CsmaNetDevice/TxQueue/Enqueue ns3::EthernetHeader ( length/type=0x800, source=00:00:00:00:00:05, destination=00:00:00:00:00:04) ns3::Ipv4Header (tos 0x0 DSCP Default ECN Not-ECT ttl 64 id 1 protocol 17 offset (bytes) 1480 flags [MF] length: 1500 192.138.2.2 > 192.138.1.1) Payload Fragment [1472:2952] ns3::EthernetTrailer (fcs=0)
+ 5.096 /NodeList/7/DeviceList/0/$ns3::CsmaNetDevice/TxQueue/Enqueue ns3::EthernetHeader ( length/type=0x800, source=00:00:00:00:00:05, destination=00:00:00:00:00:04) ns3::Ipv4Header (tos 0x0 DSCP Default ECN Not-ECT ttl 64 id 1 protocol 17 offset (bytes) 2960 flags [none] length: 68 192.138.2.2 > 192.138.1.1) Payload Fragment [2952:3000] ns3::EthernetTrailer (fcs=0)
- 5.09641 /NodeList/7/DeviceList/0/$ns3::CsmaNetDevice/TxQueue/Dequeue ns3::EthernetHeader ( length/type=0x800, source=00:00:00:00:00:05, destination=00:00:00:00:00:04) ns3::Ipv4Header (tos 0x0 DSCP Default ECN Not-ECT ttl 64 id 1 protocol 17 offset (bytes) 1480 flags [MF] length: 1500 192.138.2.2 > 192.138.1.1) Payload Fragment [1472:2952] ns3::EthernetTrailer (fcs=0)
- 5.09687 /NodeList/7/DeviceList/0/$ns3::CsmaNetDevice/TxQueue/Dequeue ns3::EthernetHeader ( length/type=0x800, source=00:00:00:00:00:05, destination=00:00:00:00:00:04) ns3::Ipv4Header (tos 0x0 DSCP Default ECN Not-ECT ttl 64 id 1 protocol 17 offset (bytes) 2960 flags [none] length: 68 192.138.2.2 > 192.138.1.1) Payload Fragment [2952:3000] ns3::EthernetTrailer (fcs=0)
+ 5.144 /NodeList/7/DeviceList/0/$ns3::CsmaNetDevice/TxQueue/Enqueue ns3::EthernetHeader ( length/type=0x800, source=00:00:00:00:00:05, destination=00:00:00:00:00:04) ns3::Ipv4Header (tos 0x0 DSCP Default ECN Not-ECT ttl 64 id 2 protocol 17 offset (bytes) 0 flags [MF] length: 1500 192.138.2.2 > 192.138.1.1) ns3::UdpHeader (length: 3008 49153 > 2500) Payload Fragment [0:1472] ns3::EthernetTrailer (fcs=0)
- 5.144 /NodeList/7/DeviceList/0/$ns3::CsmaNetDevice/TxQueue/Dequeue ns3::EthernetHeader ( length/type=0x800, source=00:00:00:00:00:05, destination=00:00:00:00:00:04) ns3::Ipv4Header (tos 0x0 DSCP Default ECN Not-ECT ttl 64 id 2 protocol 17 offset (bytes) 0 flags [MF] length: 1500 192.138.2.2 > 192.138.1.1) ns3::UdpHeader (length: 3008 49153 > 2500) Payload Fragment [0:1472] ns3::EthernetTrailer (fcs=0)
+ 5.144 /NodeList/7/DeviceList/0/$ns3::CsmaNetDevice/TxQueue/Enqueue ns3::EthernetHeader ( length/type=0x800, source=00:00:00:00:00:05, destination=00:00:00:00:00:04) ns3::Ipv4Header (tos 0x0 DSCP Default ECN Not-ECT ttl 64 id 2 protocol 17 offset (bytes) 1480 flags [MF] length: 1500 192.138.2.2 > 192.138.1.1) Payload Fragment [1472:2952] ns3::EthernetTrailer (fcs=0)
+ 5.144 /NodeList/7/DeviceList/0/$ns3::CsmaNetDevice/TxQueue/Enqueue ns3::EthernetHeader ( length/type=0x800, source=00:00:00:00:00:05, destination=00:00:00:00:00:04) ns3::Ipv4Header (tos 0x0 DSCP Default ECN Not-ECT ttl 64 id 2 protocol 17 offset (bytes) 2960 flags [none] length: 68 192.138.2.2 > 192.138.1.1) Payload Fragment [2952:3000] ns3::EthernetTrailer (fcs=0)
- 5.14441 /NodeList/7/DeviceList/0/$ns3::CsmaNetDevice/TxQueue/Dequeue ns3::EthernetHeader ( length/type=0x800, source=00:00:00:00:00:05, destination=00:00:00:00:00:04) ns3::Ipv4Header (tos 0x0 DSCP Default ECN Not-ECT ttl 64 id 2 protocol 17 offset (bytes) 1480 flags [MF] length: 1500 192.138.2.2 > 192.138.1.1) Payload Fragment [1472:2952] ns3::EthernetTrailer (fcs=0)
- 5.14488 /NodeList/7/DeviceList/0/$ns3::CsmaNetDevice/TxQueue/Dequeue ns3::EthernetHeader ( length/type=0x800, source=00:00:00:00:00:05, destination=00:00:00:00:00:04) ns3::Ipv4Header (tos 0x0 DSCP Default ECN Not-ECT ttl 64 id 2 protocol 17 offset (bytes) 2960 flags [none] length: 68 192.138.2.2 > 192.138.1.1) Payload Fragment [2952:3000] ns3::EthernetTrailer (fcs=0)
+ 5.192 /NodeList/7/DeviceList/0/$ns3::CsmaNetDevice/TxQueue/Enqueue ns3::EthernetHeader ( length/type=0x800, source=00:00:00:00:00:05, destination=00:00:00:00:00:04) ns3::Ipv4Header (tos 0x0 DSCP Default ECN Not-ECT ttl 64 id 3 protocol 17 offset (bytes) 0 flags [MF] length: 1500 192.138.2.2 > 192.138.1.1) ns3::UdpHeader (length: 3008 49153 > 2500) Payload Fragment [0:1472] ns3::EthernetTrailer (fcs=0)
- 5.192 /NodeList/7/DeviceList/0/$ns3::CsmaNetDevice/TxQueue/Dequeue ns3::EthernetHeader ( length/type=0x800, source=00:00:00:00:00:05, destination=00:00:00:00:00:04) ns3::Ipv4Header (tos 0x0 DSCP Default ECN Not-ECT ttl 64 id 3 protocol 17 offset (bytes) 0 flags [MF] length: 1500 192.138.2.2 > 192.138.1.1) ns3::UdpHeader (length: 3008 49153 > 2500) Payload Fragment [0:1472] ns3::EthernetTrailer (fcs=0)
+ 5.192 /NodeList/7/DeviceList/0/$ns3::CsmaNetDevice/TxQueue/Enqueue ns3::EthernetHeader ( length/type=0x800, source=00:00:00:00:00:05, destination=00:00:00:00:00:04) ns3::Ipv4Header (tos 0x0 DSCP Default ECN Not-ECT ttl 64 id 3 protocol 17 offset (bytes) 1480 flags [MF] length: 1500 192.138.2.2 > 192.138.1.1) Payload Fragment [1472:2952] ns3::EthernetTrailer (fcs=0)
+ 5.192 /NodeList/7/DeviceList/0/$ns3::CsmaNetDevice/TxQueue/Enqueue ns3::EthernetHeader ( length/type=0x800, source=00:00:00:00:00:05, destination=00:00:00:00:00:04) ns3::Ipv4Header (tos 0x0 DSCP Default ECN Not-ECT ttl 64 id 3 protocol 17 offset (bytes) 2960 flags [none] length: 68 192.138.2.2 > 192.138.1.1) Payload Fragment [2952:3000] ns3::EthernetTrailer (fcs=0)
- 5.19241 /NodeList/7/DeviceList/0/$ns3::CsmaNetDevice/TxQueue/Dequeue ns3::EthernetHeader ( length/type=0x800, source=00:00:00:00:00:05, destination=00:00:00:00:00:04) ns3::Ipv4Header (tos 0x0 DSCP Default ECN Not-ECT ttl 64 id 3 protocol 17 offset (bytes) 1480 flags [MF] length: 1500 192.138.2.2 > 192.138.1.1) Payload Fragment [1472:2952] ns3::EthernetTrailer (fcs=0)
- 5.19286 /NodeList/7/DeviceList/0/$ns3::CsmaNetDevice/TxQueue/Dequeue ns3::EthernetHeader ( length/type=0x800, source=00:00:00:00:00:05, destination=00:00:00:00:00:04) ns3::Ipv4Header (tos 0x0 DSCP Default ECN Not-ECT ttl 64 id 3 protocol 17 offset (bytes) 2960 flags [none] length: 68 192.138.2.2 > 192.138.1.1) Payload Fragment [2952:3000] ns3::EthernetTrailer (fcs=0)
+ 5.24 /NodeList/7/DeviceList/0/$ns3::CsmaNetDevice/TxQueue/Enqueue ns3::EthernetHeader ( length/type=0x800, source=00:00:00:00:00:05, destination=00:00:00:00:00:04) ns3::Ipv4Header (tos 0x0 DSCP Default ECN Not-ECT ttl 64 id 4 protocol 17 offset (bytes) 0 flags [MF] length: 1500 192.138.2.2 > 192.138.1.1) ns3::UdpHeader (length: 3008 49153 > 2500) Payload Fragment [0:1472] ns3::EthernetTrailer (fcs=0)
- 5.24 /NodeList/7/DeviceList/0/$ns3::CsmaNetDevice/TxQueue/Dequeue ns3::EthernetHeader ( length/type=0x800, source=00:00:00:00:00:05, destination=00:00:00:00:00:04) ns3::Ipv4Header (tos 0x0 DSCP Default ECN Not-ECT ttl 64 id 4 protocol 17 offset (bytes) 0 flags [MF] length: 1500 192.138.2.2 > 192.138.1.1) ns3::UdpHeader (length: 3008 49153 > 2500) Payload Fragment [0:1472] ns3::EthernetTrailer (fcs=0)
+ 5.24 /NodeList/7/DeviceList/0/$ns3::CsmaNetDevice/TxQueue/Enqueue ns3::EthernetHeader ( length/type=0x800, source=00:00:00:00:00:05, destination=00:00:00:00:00:04) ns3::Ipv4Header (tos 0x0 DSCP Default ECN Not-ECT ttl 64 id 4 protocol 17 offset (bytes) 1480 flags [MF] length: 1500 192.138.2.2 > 192.138.1.1) Payload Fragment [1472:2952] ns3::EthernetTrailer (fcs=0)
+ 5.24 /NodeList/7/DeviceList/0/$ns3::CsmaNetDevice/TxQueue/Enqueue ns3::EthernetHeader ( length/type=0x800, source=00:00:00:00:00:05, destination=00:00:00:00:00:04) ns3::Ipv4Header (tos 0x0 DSCP Default ECN Not-ECT ttl 64 id 4 protocol 17 offset (bytes) 2960 flags [none] length: 68 192.138.2.2 > 192.138.1.1) Payload Fragment [2952:3000] ns3::EthernetTrailer (fcs=0)
- 5.24041 /NodeList/7/DeviceList/0/$ns3::CsmaNetDevice/TxQueue/Dequeue ns3::EthernetHeader ( length/type=0x800, source=00:00:00:00:00:05, destination=00:00:00:00:00:04) ns3::Ipv4Header (tos 0x0 DSCP Default ECN Not-ECT ttl 64 id 4 protocol 17 offset (bytes) 1480 flags [MF] length: 1500 192.138.2.2 > 192.138.1.1) Payload Fragment [1472:2952] ns3::EthernetTrailer (fcs=0)
- 5.24084 /NodeList/7/DeviceList/0/$ns3::CsmaNetDevice/TxQueue/Dequeue ns3::EthernetHeader ( length/type=0x800, source=00:00:00:00:00:05, destination=00:00:00:00:00:04) ns3::Ipv4Header (tos 0x0 DSCP Default ECN Not-ECT ttl 64 id 4 protocol 17 offset (bytes) 2960 flags [none] length: 68 192.138.2.2 > 192.138.1.1) Payload Fragment [2952:3000] ns3::EthernetTrailer (fcs=0)
+ 5.288 /NodeList/7/DeviceList/0/$ns3::CsmaNetDevice/TxQueue/Enqueue ns3::EthernetHeader ( length/type=0x800, source=00:00:00:00:00:05, destination=00:00:00:00:00:04) ns3::Ipv4Header (tos 0x0 DSCP Default ECN Not-ECT ttl 64 id 5 protocol 17 offset (bytes) 0 flags [MF] length: 1500 192.138.2.2 > 192.138.1.1) ns3::UdpHeader (length: 3008 49153 > 2500) Payload Fragment [0:1472] ns3::EthernetTrailer (fcs=0)
- 5.288 /NodeList/7/DeviceList/0/$ns3::CsmaNetDevice/TxQueue/Dequeue ns3::EthernetHeader ( length/type=0x800, source=00:00:00:00:00:05, destination=00:00:00:00:00:04) ns3::Ipv4Header (tos 0x0 DSCP Default ECN Not-ECT ttl 64 id 5 protocol 17 offset (bytes) 0 flags [MF] length: 1500 192.138.2.2 > 192.138.1.1) ns3::UdpHeader (length: 3008 49153 > 2500) Payload Fragment [0:1472] ns3::EthernetTrailer (fcs=0)
+ 5.288 /NodeList/7/DeviceList/0/$ns3::CsmaNetDevice/TxQueue/Enqueue ns3::EthernetHeader ( length/type=0x800, source=00:00:00:00:00:05, destination=00:00:00:00:00:04) ns3::Ipv4Header (tos 0x0 DSCP Default ECN Not-ECT ttl 64 id 5 protocol 17 offset (bytes) 1480 flags [MF] length: 1500 192.138.2.2 > 192.138.1.1) Payload Fragment [1472:2952] ns3::EthernetTrailer (fcs=0)
+ 5.288 /NodeList/7/DeviceList/0/$ns3::CsmaNetDevice/TxQueue/Enqueue ns3::EthernetHeader ( length/type=0x800, source=00:00:00:00:00:05, destination=00:00:00:00:00:04) ns3::Ipv4Header (tos 0x0 DSCP Default ECN Not-ECT ttl 64 id 5 protocol 17 offset (bytes) 2960 flags [none] length: 68 192.138.2.2 > 192.138.1.1) Payload Fragment [2952:3000] ns3::EthernetTrailer (fcs=0)
- 5.28841 /NodeList/7/DeviceList/0/$ns3::CsmaNetDevice/TxQueue/Dequeue ns3::EthernetHeader ( length/type=0x800, source=00:00:00:00:00:05, destination=00:00:00:00:00:04) ns3::Ipv4Header (tos 0x0 DSCP Default ECN Not-ECT ttl 64 id 5 protocol 17 offset (bytes) 1480 flags [MF] length: 1500 192.138.2.2 > 192.138.1.1) Payload Fragment [1472:2952] ns3::EthernetTrailer (fcs=0)
- 5.28886 /NodeList/7/DeviceList/0/$ns3::CsmaNetDevice/TxQueue/Dequeue ns3::EthernetHeader ( length/type=0x800, source=00:00:00:00:00:05, destination=00:00:00:00:00:04) ns3::Ipv4Header (tos 0x0 DSCP Default ECN Not-ECT ttl 64 id 5 protocol 17 offset (bytes) 2960 flags [none] length: 68 192.138.2.2 > 192.138.1.1) Payload Fragment [2952:3000] ns3::EthernetTrailer (fcs=0)
+ 5.336 /NodeList/7/DeviceList/0/$ns3::CsmaNetDevice/TxQueue/Enqueue ns3::EthernetHeader ( length/type=0x800, source=00:00:00:00:00:05, destination=00:00:00:00:00:04) ns3::Ipv4Header (tos 0x0 DSCP Default ECN Not-ECT ttl 64 id 6 protocol 17 offset (bytes) 0 flags [MF] length: 1500 192.138.2.2 > 192.138.1.1) ns3::UdpHeader (length: 3008 49153 > 2500) Payload Fragment [0:1472] ns3::EthernetTrailer (fcs=0)
- 5.336 /NodeList/7/DeviceList/0/$ns3::CsmaNetDevice/TxQueue/Dequeue ns3::EthernetHeader ( length/type=0x800, source=00:00:00:00:00:05, destination=00:00:00:00:00:04) ns3::Ipv4Header (tos 0x0 DSCP Default ECN Not-ECT ttl 64 id 6 protocol 17 offset (bytes) 0 flags [MF] length: 1500 192.138.2.2 > 192.138.1.1) ns3::UdpHeader (length: 3008 49153 > 2500) Payload Fragment [0:1472] ns3::EthernetTrailer (fcs=0)
+ 5.336 /NodeList/7/DeviceList/0/$ns3::CsmaNetDevice/TxQueue/Enqueue ns3::EthernetHeader ( length/type=0x800, source=00:00:00:00:00:05, destination=00:00:00:00:00:04) ns3::Ipv4Header (tos 0x0 DSCP Default ECN Not-ECT ttl 64 id 6 protocol 17 offset (bytes) 1480 flags [MF] length: 1500 192.138.2.2 > 192.138.1.1) Payload Fragment [1472:2952] ns3::EthernetTrailer (fcs=0)
+ 5.336 /NodeList/7/DeviceList/0/$ns3::CsmaNetDevice/TxQueue/Enqueue ns3::EthernetHeader ( length/type=0x800, source=00:00:00:00:00:05, destination=00:00:00:00:00:04) ns3::Ipv4Header (tos 0x0 DSCP Default ECN Not-ECT ttl 64 id 6 protocol 17 offset (bytes) 2960 flags [none] length: 68 192.138.2.2 > 192.138.1.1) Payload Fragment [2952:3000] ns3::EthernetTrailer (fcs=0)
- 5.33641 /NodeList/7/DeviceList/0/$ns3::CsmaNetDevice/TxQueue/Dequeue ns3::EthernetHeader ( length/type=0x800, source=00:00:00:00:00:05, destination=00:00:00:00:00:04) ns3::Ipv4Header (tos 0x0 DSCP Default ECN Not-ECT ttl 64 id 6 protocol 17 offset (bytes) 1480 flags [MF] length: 1500 192.138.2.2 > 192.138.1.1) Payload Fragment [1472:2952] ns3::EthernetTrailer (fcs=0)
- 5.33683 /NodeList/7/DeviceList/0/$ns3::CsmaNetDevice/TxQueue/Dequeue ns3::EthernetHeader ( length/type=0x800, source=00:00:00:00:00:05, destination=00:00:00:00:00:04) ns3::Ipv4Header (tos 0x0 DSCP Default ECN Not-ECT ttl 64 id 6 protocol 17 offset (bytes) 2960 flags [none] length: 68 192.138.2.2 > 192.138.1.1) Payload Fragment [2952:3000] ns3::EthernetTrailer (fcs=0)
+ 5.384 /NodeList/7/DeviceList/0/$ns3::CsmaNetDevice/TxQueue/Enqueue ns3::EthernetHeader ( length/type=0x800, source=00:00:00:00:00:05, destination=00:00:00:00:00:04) ns3::Ipv4Header (tos 0x0 DSCP Default ECN Not-ECT ttl 64 id 7 protocol 17 offset (bytes) 0 flags [MF] length: 1500 192.138.2.2 > 192.138.1.1) ns3::UdpHeader (length: 3008 49153 > 2500) Payload Fragment [0:1472] ns3::EthernetTrailer (fcs=0)
- 5.384 /NodeList/7/DeviceList/0/$ns3::CsmaNetDevice/TxQueue/Dequeue ns3::EthernetHeader ( length/type=0x800, source=00:00:00:00:00:05, destination=00:00:00:00:00:04) ns3::Ipv4Header (tos 0x0 DSCP Default ECN Not-ECT ttl 64 id 7 protocol 17 offset (bytes) 0 flags [MF] length: 1500 192.138.2.2 > 192.138.1.1) ns3::UdpHeader (length: 3008 49153 > 2500) Payload Fragment [0:1472] ns3::EthernetTrailer (fcs=0)
+ 5.384 /NodeList/7/DeviceList/0/$ns3::CsmaNetDevice/TxQueue/Enqueue ns3::EthernetHeader ( length/type=0x800, source=00:00:00:00:00:05, destination=00:00:00:00:00:04) ns3::Ipv4Header (tos 0x0 DSCP Default ECN Not-ECT ttl 64 id 7 protocol 17 offset (bytes) 1480 flags [MF] length: 1500 192.138.2.2 > 192.138.1.1) Payload Fragment [1472:2952] ns3::EthernetTrailer (fcs=0)
+ 5.384 /NodeList/7/DeviceList/0/$ns3::CsmaNetDevice/TxQueue/Enqueue ns3::EthernetHeader ( length/type=0x800, source=00:00:00:00:00:05, destination=00:00:00:00:00:04) ns3::Ipv4Header (tos 0x0 DSCP Default ECN Not-ECT ttl 64 id 7 protocol 17 offset (bytes) 2960 flags [none] length: 68 192.138.2.2 > 192.138.1.1) Payload Fragment [2952:3000] ns3::EthernetTrailer (fcs=0)
- 5.38441 /NodeList/7/DeviceList/0/$ns3::CsmaNetDevice/TxQueue/Dequeue ns3::EthernetHeader ( length/type=0x800, source=00:00:00:00:00:05, destination=00:00:00:00:00:04) ns3::Ipv4Header (tos 0x0 DSCP Default ECN Not-ECT ttl 64 id 7 protocol 17 offset (bytes) 1480 flags [MF] length: 1500 192.138.2.2 > 192.138.1.1) Payload Fragment [1472:2952] ns3::EthernetTrailer (fcs=0)
- 5.38485 /NodeList/7/DeviceList/0/$ns3::CsmaNetDevice/TxQueue/Dequeue ns3::EthernetHeader ( length/type=0x800, source=00:00:00:00:00:05, destination=00:00:00:00:00:04) ns3::Ipv4Header (tos 0x0 DSCP Default ECN Not-ECT ttl 64 id 7 protocol 17 offset (bytes) 2960 flags [none] length: 68 192.138.2.2 > 192.138.1.1) Payload Fragment [2952:3000] ns3::EthernetTrailer (fcs=0)
+ 5.432 /NodeList/7/DeviceList/0/$ns3::CsmaNetDevice/TxQueue/Enqueue ns3::EthernetHeader ( length/type=0x800, source=00:00:00:00:00:05, destination=00:00:00:00:00:04) ns3::Ipv4Header (tos 0x0 DSCP Default ECN Not-ECT ttl 64 id 8 protocol 17 offset (bytes) 0 flags [MF] length: 1500 192.138.2.2 > 192.138.1.1) ns3::UdpHeader (length: 3008 49153 > 2500) Payload Fragment [0:1472] ns3::EthernetTrailer (fcs=0)
- 5.432 /NodeList/7/DeviceList/0/$ns3::CsmaNetDevice/TxQueue/Dequeue ns3::EthernetHeader ( length/type=0x800, source=00:00:00:00:00:05, destination=00:00:00:00:00:04) ns3::Ipv4Header (tos 0x0 DSCP Default ECN Not-ECT ttl 64 id 8 protocol 17 offset (bytes) 0 flags [MF] length: 1500 192.138.2.2 > 192.138.1.1) ns3::UdpHeader (length: 3008 49153 > 2500) Payload Fragment [0:1472] ns3::EthernetTrailer (fcs=0)
+ 5.432 /NodeList/7/DeviceList/0/$ns3::CsmaNetDevice/TxQueue/Enqueue ns3::EthernetHeader ( length/type=0x800, source=00:00:00:00:00:05, destination=00:00:00:00:00:04) ns3::Ipv4Header (tos 0x0 DSCP Default ECN Not-ECT ttl 64 id 8 protocol 17 offset (bytes) 1480 flags [MF] length: 1500 192.138.2.2 > 192.138.1.1) Payload Fragment [1472:2952] ns3::EthernetTrailer (fcs=0)
+ 5.432 /NodeList/7/DeviceList/0/$ns3::CsmaNetDevice/TxQueue/Enqueue ns3::EthernetHeader ( length/type=0x800, source=00:00:00:00:00:05, destination=00:00:00:00:00:04) ns3::Ipv4Header (tos 0x0 DSCP Default ECN Not-ECT ttl 64 id 8 protocol 17 offset (bytes) 2960 flags [none] length: 68 192.138.2.2 > 192.138.1.1) Payload Fragment [2952:3000] ns3::EthernetTrailer (fcs=0)
- 5.43241 /NodeList/7/DeviceList/0/$ns3::CsmaNetDevice/TxQueue/Dequeue ns3::EthernetHeader ( length/type=0x800, source=00:00:00:00:00:05, destination=00:00:00:00:00:04) ns3::Ipv4Header (tos 0x0 DSCP Default ECN Not-ECT ttl 64 id 8 protocol 17 offset (bytes) 1480 flags [MF] length: 1500 192.138.2.2 > 192.138.1.1) Payload Fragment [1472:2952] ns3::EthernetTrailer (fcs=0)
- 5.43283 /NodeList/7/DeviceList/0/$ns3::CsmaNetDevice/TxQueue/Dequeue ns3::EthernetHeader ( length/type=0x800, source=00:00:00:00:00:05, destination=00:00:00:00:00:04) ns3::Ipv4Header (tos 0x0 DSCP Default ECN Not-ECT ttl 64 id 8 protocol 17 offset (bytes) 2960 flags [none] length: 68 192.138.2.2 > 192.138.1.1) Payload Fragment [2952:3000] ns3::EthernetTrailer (fcs=0)
+ 5.48 /NodeList/7/DeviceList/0/$ns3::CsmaNetDevice/TxQueue/Enqueue ns3::EthernetHeader ( length/type=0x800, source=00:00:00:00:00:05, destination=00:00:00:00:00:04) ns3::Ipv4Header (tos 0x0 DSCP Default ECN Not-ECT ttl 64 id 9 protocol 17 offset (bytes) 0 flags [MF] length: 1500 192.138.2.2 > 192.138.1.1) ns3::UdpHeader (length: 3008 49153 > 2500) Payload Fragment [0:1472] ns3::EthernetTrailer (fcs=0)
- 5.48 /NodeList/7/DeviceList/0/$ns3::CsmaNetDevice/TxQueue/Dequeue ns3::EthernetHeader ( length/type=0x800, source=00:00:00:00:00:05, destination=00:00:00:00:00:04) ns3::Ipv4Header (tos 0x0 DSCP Default ECN Not-ECT ttl 64 id 9 protocol 17 offset (bytes) 0 flags [MF] length: 1500 192.138.2.2 > 192.138.1.1) ns3::UdpHeader (length: 3008 49153 > 2500) Payload Fragment [0:1472] ns3::EthernetTrailer (fcs=0)
+ 5.48 /NodeList/7/DeviceList/0/$ns3::CsmaNetDevice/TxQueue/Enqueue ns3::EthernetHeader ( length/type=0x800, source=00:00:00:00:00:05, destination=00:00:00:00:00:04) ns3::Ipv4Header (tos 0x0 DSCP Default ECN Not-ECT ttl 64 id 9 protocol 17 offset (bytes) 1480 flags [MF] length: 1500 192.138.2.2 > 192.138.1.1) Payload Fragment [1472:2952] ns3::EthernetTrailer (fcs=0)
+ 5.48 /NodeList/7/DeviceList/0/$ns3::CsmaNetDevice/TxQueue/Enqueue ns3::EthernetHeader ( length/type=0x800, source=00:00:00:00:00:05, destination=00:00:00:00:00:04) ns3::Ipv4Header (tos 0x0 DSCP Default ECN Not-ECT ttl 64 id 9 protocol 17 offset (bytes) 2960 flags [none] length: 68 192.138.2.2 > 192.138.1.1) Payload Fragment [2952:3000] ns3::EthernetTrailer (fcs=0)
- 5.48041 /NodeList/7/DeviceList/0/$ns3::CsmaNetDevice/TxQueue/Dequeue ns3::EthernetHeader ( length/type=0x800, source=00:00:00:00:00:05, destination=00:00:00:00:00:04) ns3::Ipv4Header (tos 0x0 DSCP Default ECN Not-ECT ttl 64 id 9 protocol 17 offset (bytes) 1480 flags [MF] length: 1500 192.138.2.2 > 192.138.1.1) Payload Fragment [1472:2952] ns3::EthernetTrailer (fcs=0)
- 5.48083 /NodeList/7/DeviceList/0/$ns3::CsmaNetDevice/TxQueue/Dequeue ns3::EthernetHeader ( length/type=0x800, source=00:00:00:00:00:05, destination=00:00:00:00:00:04) ns3::Ipv4Header (tos 0x0 DSCP Default ECN Not-ECT ttl 64 id 9 protocol 17 offset (bytes) 2960 flags [none] length: 68 192.138.2.2 > 192.138.1.1) Payload Fragment [2952:3000] ns3::EthernetTrailer (fcs=0)
+ 5.528 /NodeList/7/DeviceList/0/$ns3::CsmaNetDevice/TxQueue/Enqueue ns3::EthernetHeader ( length/type=0x800, source=00:00:00:00:00:05, destination=00:00:00:00:00:04) ns3::Ipv4Header (tos 0x0 DSCP Default ECN Not-ECT ttl 64 id 10 protocol 17 offset (bytes) 0 flags [MF] length: 1500 192.138.2.2 > 192.138.1.1) ns3::UdpHeader (length: 3008 49153 > 2500) Payload Fragment [0:1472] ns3::EthernetTrailer (fcs=0)
- 5.528 /NodeList/7/DeviceList/0/$ns3::CsmaNetDevice/TxQueue/Dequeue ns3::EthernetHeader ( length/type=0x800, source=00:00:00:00:00:05, destination=00:00:00:00:00:04) ns3::Ipv4Header (tos 0x0 DSCP Default ECN Not-ECT ttl 64 id 10 protocol 17 offset (bytes) 0 flags [MF] length: 1500 192.138.2.2 > 192.138.1.1) ns3::UdpHeader (length: 3008 49153 > 2500) Payload Fragment [0:1472] ns3::EthernetTrailer (fcs=0)
+ 5.528 /NodeList/7/DeviceList/0/$ns3::CsmaNetDevice/TxQueue/Enqueue ns3::EthernetHeader ( length/type=0x800, source=00:00:00:00:00:05, destination=00:00:00:00:00:04) ns3::Ipv4Header (tos 0x0 DSCP Default ECN Not-ECT ttl 64 id 10 protocol 17 offset (bytes) 1480 flags [MF] length: 1500 192.138.2.2 > 192.138.1.1) Payload Fragment [1472:2952] ns3::EthernetTrailer (fcs=0)
+ 5.528 /NodeList/7/DeviceList/0/$ns3::CsmaNetDevice/TxQueue/Enqueue ns3::EthernetHeader ( length/type=0x800, source=00:00:00:00:00:05, destination=00:00:00:00:00:04) ns3::Ipv4Header (tos 0x0 DSCP Default ECN Not-ECT ttl 64 id 10 protocol 17 offset (bytes) 2960 flags [none] length: 68 192.138.2.2 > 192.138.1.1) Payload Fragment [2952:3000] ns3::EthernetTrailer (fcs=0)
- 5.52841 /NodeList/7/DeviceList/0/$ns3::CsmaNetDevice/TxQueue/Dequeue ns3::EthernetHeader ( length/type=0x800, source=00:00:00:00:00:05, destination=00:00:00:00:00:04) ns3::Ipv4Header (tos 0x0 DSCP Default ECN Not-ECT ttl 64 id 10 protocol 17 offset (bytes) 1480 flags [MF] length: 1500 192.138.2.2 > 192.138.1.1) Payload Fragment [1472:2952] ns3::EthernetTrailer (fcs=0)
- 5.52884 /NodeList/7/DeviceList/0/$ns3::CsmaNetDevice/TxQueue/Dequeue ns3::EthernetHeader ( length/type=0x800, source=00:00:00:00:00:05, destination=00:00:00:00:00:04) ns3::Ipv4Header (tos 0x0 DSCP Default ECN Not-ECT ttl 64 id 10 protocol 17 offset (bytes) 2960 flags [none] length: 68 192.138.2.2 > 192.138.1.1) Payload Fragment [2952:3000] ns3::EthernetTrailer (fcs=0)
+ 5.576 /NodeList/7/DeviceList/0/$ns3::CsmaNetDevice/TxQueue/Enqueue ns3::EthernetHeader ( length/type=0x800, source=00:00:00:00:00:05, destination=00:00:00:00:00:04) ns3::Ipv4Header (tos 0x0 DSCP Default ECN Not-ECT ttl 64 id 11 protocol 17 offset (bytes) 0 flags [MF] length: 1500 192.138.2.2 > 192.138.1.1) ns3::UdpHeader (length: 3008 49153 > 2500) Payload Fragment [0:1472] ns3::EthernetTrailer (fcs=0)
- 5.576 /NodeList/7/DeviceList/0/$ns3::CsmaNetDevice/TxQueue/Dequeue ns3::EthernetHeader ( length/type=0x800, source=00:00:00:00:00:05, destination=00:00:00:00:00:04) ns3::Ipv4Header (tos 0x0 DSCP Default ECN Not-ECT ttl 64 id 11 protocol 17 offset (bytes) 0 flags [MF] length: 1500 192.138.2.2 > 192.138.1.1) ns3::UdpHeader (length: 3008 49153 > 2500) Payload Fragment [0:1472] ns3::EthernetTrailer (fcs=0)
+ 5.576 /NodeList/7/DeviceList/0/$ns3::CsmaNetDevice/TxQueue/Enqueue ns3::EthernetHeader ( length/type=0x800, source=00:00:00:00:00:05, destination=00:00:00:00:00:04) ns3::Ipv4Header (tos 0x0 DSCP Default ECN Not-ECT ttl 64 id 11 protocol 17 offset (bytes) 1480 flags [MF] length: 1500 192.138.2.2 > 192.138.1.1) Payload Fragment [1472:2952] ns3::EthernetTrailer (fcs=0)
+ 5.576 /NodeList/7/DeviceList/0/$ns3::CsmaNetDevice/TxQueue/Enqueue ns3::EthernetHeader ( length/type=0x800, source=00:00:00:00:00:05, destination=00:00:00:00:00:04) ns3::Ipv4Header (tos 0x0 DSCP Default ECN Not-ECT ttl 64 id 11 protocol 17 offset (bytes) 2960 flags [none] length: 68 192.138.2.2 > 192.138.1.1) Payload Fragment [2952:3000] ns3::EthernetTrailer (fcs=0)
- 5.57641 /NodeList/7/DeviceList/0/$ns3::CsmaNetDevice/TxQueue/Dequeue ns3::EthernetHeader ( length/type=0x800, source=00:00:00:00:00:05, destination=00:00:00:00:00:04) ns3::Ipv4Header (tos 0x0 DSCP Default ECN Not-ECT ttl 64 id 11 protocol 17 offset (bytes) 1480 flags [MF] length: 1500 192.138.2.2 > 192.138.1.1) Payload Fragment [1472:2952] ns3::EthernetTrailer (fcs=0)
- 5.57684 /NodeList/7/DeviceList/0/$ns3::CsmaNetDevice/TxQueue/Dequeue ns3::EthernetHeader ( length/type=0x800, source=00:00:00:00:00:05, destination=00:00:00:00:00:04) ns3::Ipv4Header (tos 0x0 DSCP Default ECN Not-ECT ttl 64 id 11 protocol 17 offset (bytes) 2960 flags [none] length: 68 192.138.2.2 > 192.138.1.1) Payload Fragment [2952:3000] ns3::EthernetTrailer (fcs=0)
+ 5.624 /NodeList/7/DeviceList/0/$ns3::CsmaNetDevice/TxQueue/Enqueue ns3::EthernetHeader ( length/type=0x800, source=00:00:00:00:00:05, destination=00:00:00:00:00:04) ns3::Ipv4Header (tos 0x0 DSCP Default ECN Not-ECT ttl 64 id 12 protocol 17 offset (bytes) 0 flags [MF] length: 1500 192.138.2.2 > 192.138.1.1) ns3::UdpHeader (length: 3008 49153 > 2500) Payload Fragment [0:1472] ns3::EthernetTrailer (fcs=0)