r 3.00407 /NodeList/0/DeviceList/0/$ns3::CsmaNetDevice/MacRx ns3::EthernetHeader ( length/type=0x806, source=00:00:00:00:00:02, destination=ff:ff:ff:ff:ff:ff) ns3::ArpHeader (request source mac: 00-06-00:00:00:00:00:02 source ipv4: 192.138.1.2 dest ipv4: 192.138.1.3) Payload (size=18) ns3::EthernetTrailer (fcs=0)
r 3.01017 /NodeList/0/DeviceList/0/$ns3::CsmaNetDevice/MacRx ns3::EthernetHeader ( length/type=0x806, source=00:00:00:00:00:03, destination=ff:ff:ff:ff:ff:ff) ns3::ArpHeader (request source mac: 00-06-00:00:00:00:00:03 source ipv4: 192.138.1.3 dest ipv4: 192.138.1.2) Payload (size=18) ns3::EthernetTrailer (fcs=0)
r 5.05184 /NodeList/0/DeviceList/0/$ns3::CsmaNetDevice/MacRx ns3::EthernetHeader ( length/type=0x806, source=00:00:00:00:00:02, destination=ff:ff:ff:ff:ff:ff) ns3::ArpHeader (request source mac: 00-06-00:00:00:00:00:02 source ipv4: 192.138.1.2 dest ipv4: 192.138.1.1) Payload (size=18) ns3::EthernetTrailer (fcs=0)
+ 5.05184 /NodeList/0/DeviceList/0/$ns3::CsmaNetDevice/TxQueue/Enqueue ns3::EthernetHeader ( length/type=0x806, source=00:00:00:00:00:01, destination=00:00:00:00:00:02) ns3::ArpHeader (reply source mac: 00-06-00:00:00:00:00:01 source ipv4: 192.138.1.1 dest mac: 00-06-00:00:00:00:00:02 dest ipv4: 192.138.1.2) Payload (size=18) ns3::EthernetTrailer (fcs=0)
- 5.05184 /NodeList/0/DeviceList/0/$ns3::CsmaNetDevice/TxQueue/Dequeue ns3::EthernetHeader ( length/type=0x806, source=00:00:00:00:00:01, destination=00:00:00:00:00:02) ns3::ArpHeader (reply source mac: 00-06-00:00:00:00:00:01 source ipv4: 192.138.1.1 dest mac: 00-06-00:00:00:00:00:02 dest ipv4: 192.138.1.2) Payload (size=18) ns3::EthernetTrailer (fcs=0)
r 5.05237 /NodeList/0/DeviceList/0/$ns3::CsmaNetDevice/MacRx ns3::EthernetHeader ( length/type=0x800, source=00:00:00:00:00:02, destination=00:00:00:00:00:01) ns3::Ipv4Header (tos 0x0 DSCP Default ECN Not-ECT ttl 61 id 0 protocol 17 offset (bytes) 0 flags [MF] length: 1500 192.138.2.2 > 192.138.1.1) ns3::UdpHeader (length: 3008 49153 > 2500) Payload Fragment [0:1472] ns3::EthernetTrailer (fcs=0)
r 5.05287 /NodeList/0/DeviceList/0/$ns3::CsmaNetDevice/MacRx ns3::EthernetHeader ( length/type=0x800, source=00:00:00:00:00:02, destination=00:00:00:00:00:01) ns3::Ipv4Header (tos 0x0 DSCP Default ECN Not-ECT ttl 61 id 0 protocol 17 offset (bytes) 1480 flags [MF] length: 1500 192.138.2.2 > 192.138.1.1) Payload Fragment [1472:2952] ns3::EthernetTrailer (fcs=0)
r 5.05291 /NodeList/0/DeviceList/0/$ns3::CsmaNetDevice/MacRx ns3::EthernetHeader ( length/type=0x800, source=00:00:00:00:00:02, destination=00:00:00:00:00:01) ns3::Ipv4Header (tos 0x0 DSCP Default ECN Not-ECT ttl 61 id 0 protocol 17 offset (bytes) 2960 flags [none] length: 68 192.138.2.2 > 192.138.1.1) Payload Fragment [2952:3000] ns3::EthernetTrailer (fcs=0)
r 5.09723 /NodeList/0/DeviceList/0/$ns3::CsmaNetDevice/MacRx ns3::EthernetHeader ( length/type=0x800, source=00:00:00:00:00:02, destination=00:00:00:00:00:01) ns3::Ipv4Header (tos 0x0 DSCP Default ECN Not-ECT ttl 61 id 1 protocol 17 offset (bytes) 0 flags [MF] length: 1500 192.138.2.2 > 192.138.1.1) ns3::UdpHeader (length: 3008 49153 > 2500) Payload Fragment [0:1472] ns3::EthernetTrailer (fcs=0)
r 5.09773 /NodeList/0/DeviceList/0/$ns3::CsmaNetDevice/MacRx ns3::EthernetHeader ( length/type=0x800, source=00:00:00:00:00:02, destination=00:00:00:00:00:01) ns3::Ipv4Header (tos 0x0 DSCP Default ECN Not-ECT ttl 61 id 1 protocol 17 offset (bytes) 1480 flags [MF] length: 1500 192.138.2.2 > 192.138.1.1) Payload Fragment [1472:2952] ns3::EthernetTrailer (fcs=0)
r 5.09777 /NodeList/0/DeviceList/0/$ns3::CsmaNetDevice/MacRx ns3::EthernetHeader ( length/type=0x800, source=00:00:00:00:00:02, destination=00:00:00:00:00:01) ns3::Ipv4Header (tos 0x0 DSCP Default ECN Not-ECT ttl 61 id 1 protocol 17 offset (bytes) 2960 flags [none] length: 68 192.138.2.2 > 192.138.1.1) Payload Fragment [2952:3000] ns3::EthernetTrailer (fcs=0)
r 5.14523 /NodeList/0/DeviceList/0/$ns3::CsmaNetDevice/MacRx ns3::EthernetHeader ( length/type=0x800, source=00:00:00:00:00:02, destination=00:00:00:00:00:01) ns3::Ipv4Header (tos 0x0 DSCP Default ECN Not-ECT ttl 61 id 2 protocol 17 offset (bytes) 0 flags [MF] length: 1500 192.138.2.2 > 192.138.1.1) ns3::UdpHeader (length: 3008 49153 > 2500) Payload Fragment [0:1472] ns3::EthernetTrailer (fcs=0)
r 5.14573 /NodeList/0/DeviceList/0/$ns3::CsmaNetDevice/MacRx ns3::EthernetHeader ( length/type=0x800, source=00:00:00:00:00:02, destination=00:00:00:00:00:01) ns3::Ipv4Header (tos 0x0 DSCP Default ECN Not-ECT ttl 61 id 2 protocol 17 offset (bytes) 1480 flags [MF] length: 1500 192.138.2.2 > 192.138.1.1) Payload Fragment [1472:2952] ns3::EthernetTrailer (fcs=0)
r 5.14577 /NodeList/0/DeviceList/0/$ns3::CsmaNetDevice/MacRx ns3::EthernetHeader ( length/type=0x800, source=00:00:00:00:00:02, destination=00:00:00:00:00:01) ns3::Ipv4Header (tos 0x0 DSCP Default ECN Not-ECT ttl 61 id 2 protocol 17 offset (bytes) 2960 flags [none] length: 68 192.138.2.2 > 192.138.1.1) Payload Fragment [2952:3000] ns3::EthernetTrailer (fcs=0)
r 5.19323 /NodeList/0/DeviceList/0/$ns3::CsmaNetDevice/MacRx ns3::EthernetHeader ( length/type=0x800, source=00:00:00:00:00:02, destination=00:00:00:00:00:01) ns3::Ipv4Header (tos 0x0 DSCP Default ECN Not-ECT ttl 61 id 3 protocol 17 offset (bytes) 0 flags [MF] length: 1500 192.138.2.2 > 192.138.1.1) ns3::UdpHeader (length: 3008 49153 > 2500) Payload Fragment [0:1472] ns3::EthernetTrailer (fcs=0)
r 5.19373 /NodeList/0/DeviceList/0/$ns3::CsmaNetDevice/MacRx ns3::EthernetHeader ( length/type=0x800, source=00:00:00:00:00:02, destination=00:00:00:00:00:01) ns3::Ipv4Header (tos 0x0 DSCP Default ECN Not-ECT ttl 61 id 3 protocol 17 offset (bytes) 1480 flags [MF] length: 1500 192.138.2.2 > 192.138.1.1) Payload Fragment [1472:2952] ns3::EthernetTrailer (fcs=0)
r 5.19378 /NodeList/0/DeviceList/0/$ns3::CsmaNetDevice/MacRx ns3::EthernetHeader ( length/type=0x800, source=00:00:00:00:00:02, destination=00:00:00:00:00:01) ns3::Ipv4Header (tos 0x0 DSCP Default ECN Not-ECT ttl 61 id 3 protocol 17 offset (bytes) 2960 flags [none] length: 68 192.138.2.2 > 192.138.1.1) Payload Fragment [2952:3000] ns3::EthernetTrailer (fcs=0)
r 5.24123 /NodeList/0/DeviceList/0/$ns3::CsmaNetDevice/MacRx ns3::EthernetHeader ( length/type=0x800, source=00:00:00:00:00:02, destination=00:00:00:00:00:01) ns3::Ipv4Header (tos 0x0 DSCP Default ECN Not-ECT ttl 61 id 4 protocol 17 offset (bytes) 0 flags [MF] length: 1500 192.138.2.2 > 192.138.1.1) ns3::UdpHeader (length: 3008 49153 > 2500) Payload Fragment [0:1472] ns3::EthernetTrailer (fcs=0)
r 5.24174 /NodeList/0/DeviceList/0/$ns3::CsmaNetDevice/MacRx ns3::EthernetHeader ( length/type=0x800, source=00:00:00:00:00:02, destination=00:00:00:00:00:01) ns3::Ipv4Header (tos 0x0 DSCP Default ECN Not-ECT ttl 61 id 4 protocol 17 offset (bytes) 1480 flags [MF] length: 1500 192.138.2.2 > 192.138.1.1) Payload Fragment [1472:2952] ns3::EthernetTrailer (fcs=0)
r 5.24178 /NodeList/0/DeviceList/0/$ns3::CsmaNetDevice/MacRx ns3::EthernetHeader ( length/type=0x800, source=00:00:00:00:00:02, destination=00:00:00:00:00:01) ns3::Ipv4Header (tos 0x0 DSCP Default ECN Not-ECT ttl 61 id 4 protocol 17 offset (bytes) 2960 flags [none] length: 68 192.138.2.2 > 192.138.1.1) Payload Fragment [2952:3000] ns3::EthernetTrailer (fcs=0)
r 5.28923 /NodeList/0/DeviceList/0/$ns3::CsmaNetDevice/MacRx ns3::EthernetHeader ( length/type=0x800, source=00:00:00:00:00:02, destination=00:00:00:00:00:01) ns3::Ipv4Header (tos 0x0 DSCP Default ECN Not-ECT ttl 61 id 5 protocol 17 offset (bytes) 0 flags [MF] length: 1500 192.138.2.2 > 192.138.1.1) ns3::UdpHeader (length: 3008 49153 > 2500) Payload Fragment [0:1472] ns3::EthernetTrailer (fcs=0)
r 5.28973 /NodeList/0/DeviceList/0/$ns3::CsmaNetDevice/MacRx ns3::EthernetHeader ( length/type=0x800, source=00:00:00:00:00:02, destination=00:00:00:00:00:01) ns3::Ipv4Header (tos 0x0 DSCP Default ECN Not-ECT ttl 61 id 5 protocol 17 offset (bytes) 1480 flags [MF] length: 1500 192.138.2.2 > 192.138.1.1) Payload Fragment [1472:2952] ns3::EthernetTrailer (fcs=0)
r 5.28977 /NodeList/0/DeviceList/0/$ns3::CsmaNetDevice/MacRx ns3::EthernetHeader ( length/type=0x800, source=00:00:00:00:00:02, destination=00:00:00:00:00:01) ns3::Ipv4Header (tos 0x0 DSCP Default ECN Not-ECT ttl 61 id 5 protocol 17 offset (bytes) 2960 flags [none] length: 68 192.138.2.2 > 192.138.1.1) Payload Fragment [2952:3000] ns3::EthernetTrailer (fcs=0)
r 5.33723 /NodeList/0/DeviceList/0/$ns3::CsmaNetDevice/MacRx ns3::EthernetHeader ( length/type=0x800, source=00:00:00:00:00:02, destination=00:00:00:00:00:01) ns3::Ipv4Header (tos 0x0 DSCP Default ECN Not-ECT ttl 61 id 6 protocol 17 offset (bytes) 0 flags [MF] length: 1500 192.138.2.2 > 192.138.1.1) ns3::UdpHeader (length: 3008 49153 > 2500) Payload Fragment [0:1472] ns3::EthernetTrailer (fcs=0)
r 5.33773 /NodeList/0/DeviceList/0/$ns3::CsmaNetDevice/MacRx ns3::EthernetHeader ( length/type=0x800, source=00:00:00:00:00:02, destination=00:00:00:00:00:01) ns3::Ipv4Header (tos 0x0 DSCP Default ECN Not-ECT ttl 61 id 6 protocol 17 offset (bytes) 1480 flags [MF] length: 1500 192.138.2.2 > 192.138.1.1) Payload Fragment [1472:2952] ns3::EthernetTrailer (fcs=0)
r 5.33777 /NodeList/0/DeviceList/0/$ns3::CsmaNetDevice/MacRx ns3::EthernetHeader ( length/type=0x800, source=00:00:00:00:00:02, destination=00:00:00:00:00:01) ns3::Ipv4Header (tos 0x0 DSCP Default ECN Not-ECT ttl 61 id 6 protocol 17 offset (bytes) 2960 flags [none] length: 68 192.138.2.2 > 192.138.1.1) Payload Fragment [2952:3000] ns3::EthernetTrailer (fcs=0)
r 5.38523 /NodeList/0/DeviceList/0/$ns3::CsmaNetDevice/MacRx ns3::EthernetHeader ( length/type=0x800, source=00:00:00:00:00:02, destination=00:00:00:00:00:01) ns3::Ipv4Header (tos 0x0 DSCP Default ECN Not-ECT ttl 61 id 7 protocol 17 offset (bytes) 0 flags [MF] length: 1500 192.138.2.2 > 192.138.1.1) ns3::UdpHeader (length: 3008 49153 > 2500) Payload Fragment [0:1472] ns3::EthernetTrailer (fcs=0)
r 5.38573 /NodeList/0/DeviceList/0/$ns3::CsmaNetDevice/MacRx ns3::EthernetHeader ( length/type=0x800, source=00:00:00:00:00:02, destination=00:00:00:00:00:01) ns3::Ipv4Header (tos 0x0 DSCP Default ECN Not-ECT ttl 61 id 7 protocol 17 offset (bytes) 1480 flags [MF] length: 1500 192.138.2.2 > 192.138.1.1) Payload Fragment [1472:2952] ns3::EthernetTrailer (fcs=0)
r 5.38577 /NodeList/0/DeviceList/0/$ns3::CsmaNetDevice/MacRx ns3::EthernetHeader ( length/type=0x800, source=00:00:00:00:00:02, destination=00:00:00:00:00:01) ns3::Ipv4Header (tos 0x0 DSCP Default ECN Not-ECT ttl 61 id 7 protocol 17 offset (bytes) 2960 flags [none] length: 68 192.138.2.2 > 192.138.1.1) Payload Fragment [2952:3000] ns3::EthernetTrailer (fcs=0)
r 5.43323 /NodeList/0/DeviceList/0/$ns3::CsmaNetDevice/MacRx ns3::EthernetHeader ( length/type=0x800, source=00:00:00:00:00:02, destination=00:00:00:00:00:01) ns3::Ipv4Header (tos 0x0 DSCP Default ECN Not-ECT ttl 61 id 8 protocol 17 offset (bytes) 0 flags [MF] length: 1500 192.138.2.2 > 192.138.1.1) ns3::UdpHeader (length: 3008 49153 > 2500) Payload Fragment [0:1472] ns3::EthernetTrailer (fcs=0)
r 5.43373 /NodeList/0/DeviceList/0/$ns3::CsmaNetDevice/MacRx ns3::EthernetHeader ( length/type=0x800, source=00:00:00:00:00:02, destination=00:00:00:00:00:01) ns3::Ipv4Header (tos 0x0 DSCP Default ECN Not-ECT ttl 61 id 8 protocol 17 offset (bytes) 1480 flags [MF] length: 1500 192.138.2.2 > 192.138.1.1) Payload Fragment [1472:2952] ns3::EthernetTrailer (fcs=0)
r 5.43378 /NodeList/0/DeviceList/0/$ns3::CsmaNetDevice/MacRx ns3::EthernetHeader ( length/type=0x800, source=00:00:00:00:00:02, destination=00:00:00:00:00:01) ns3::Ipv4Header (tos 0x0 DSCP Default ECN Not-ECT ttl 61 id 8 protocol 17 offset (bytes) 2960 flags [none] length: 68 192.138.2.2 > 192.138.1.1) Payload Fragment [2952:3000] ns3::EthernetTrailer (fcs=0)
r 5.48123 /NodeList/0/DeviceList/0/$ns3::CsmaNetDevice/MacRx ns3::EthernetHeader ( length/type=0x800, source=00:00:00:00:00:02, destination=00:00:00:00:00:01) ns3::Ipv4Header (tos 0x0 DSCP Default ECN Not-ECT ttl 61 id 9 protocol 17 offset (bytes) 0 flags [MF] length: 1500 192.138.2.2 > 192.138.1.1) ns3::UdpHeader (length: 3008 49153 > 2500) Payload Fragment [0:1472] ns3::EthernetTrailer (fcs=0)
r 5.48173 /NodeList/0/DeviceList/0/$ns3::CsmaNetDevice/MacRx ns3::EthernetHeader ( length/type=0x800, source=00:00:00:00:00:02, destination=00:00:00:00:00:01) ns3::Ipv4Header (tos 0x0 DSCP Default ECN Not-ECT ttl 61 id 9 protocol 17 offset (bytes) 1480 flags [MF] length: 1500 192.138.2.2 > 192.138.1.1) Payload Fragment [1472:2952] ns3::EthernetTrailer (fcs=0)
r 5.48177 /NodeList/0/DeviceList/0/$ns3::CsmaNetDevice/MacRx ns3::EthernetHeader ( length/type=0x800, source=00:00:00:00:00:02, destination=00:00:00:00:00:01) ns3::Ipv4Header (tos 0x0 DSCP Default ECN Not-ECT ttl 61 id 9 protocol 17 offset (bytes) 2960 flags [none] length: 68 192.138.2.2 > 192.138.1.1) Payload Fragment [2952:3000] ns3::EthernetTrailer (fcs=0)
r 5.52923 /NodeList/0/DeviceList/0/$ns3::CsmaNetDevice/MacRx ns3::EthernetHeader ( length/type=0x800, source=00:00:00:00:00:02, destination=00:00:00:00:00:01) ns3::Ipv4Header (tos 0x0 DSCP Default ECN Not-ECT ttl 61 id 10 protocol 17 offset (bytes) 0 flags [MF] length: 1500 192.138.2.2 > 192.138.1.1) ns3::UdpHeader (length: 3008 49153 > 2500) Payload Fragment [0:1472] ns3::EthernetTrailer (fcs=0)
r 5.52973 /NodeList/0/DeviceList/0/$ns3::CsmaNetDevice/MacRx ns3::EthernetHeader ( length/type=0x800, source=00:00:00:00:00:02, destination=00:00:00:00:00:01) ns3::Ipv4Header (tos 0x0 DSCP Default ECN Not-ECT ttl 61 id 10 protocol 17 offset (bytes) 1480 flags [MF] length: 1500 192.138.2.2 > 192.138.1.1) Payload Fragment [1472:2952] ns3::EthernetTrailer (fcs=0)
r 5.52978 /NodeList/0/DeviceList/0/$ns3::CsmaNetDevice/MacRx ns3::EthernetHeader ( length/type=0x800, source=00:00:00:00:00:02, destination=00:00:00:00:00:01) ns3::Ipv4Header (tos 0x0 DSCP Default ECN Not-ECT ttl 61 id 10 protocol 17 offset (bytes) 2960 flags [none] length: 68 192.138.2.2 > 192.138.1.1) Payload Fragment [2952:3000] ns3::EthernetTrailer (fcs=0)
r 5.57723 /NodeList/0/DeviceList/0/$ns3::CsmaNetDevice/MacRx ns3::EthernetHeader ( length/type=0x800, source=00:00:00:00:00:02, destination=00:00:00:00:00:01) ns3::Ipv4Header (tos 0x0 DSCP Default ECN Not-ECT ttl 61 id 11 protocol 17 offset (bytes) 0 flags [MF] length: 1500 192.138.2.2 > 192.138.1.1) ns3::UdpHeader (length: 3008 49153 > 2500) Payload Fragment [0:1472] ns3::EthernetTrailer (fcs=0)
r 5.57773 /NodeList/0/DeviceList/0/$ns3::CsmaNetDevice/MacRx ns3::EthernetHeader ( length/type=0x800, source=00:00:00:00:00:02, destination=00:00:00:00:00:01) ns3::Ipv4Header (tos 0x0 DSCP Default ECN Not-ECT ttl 61 id 11 protocol 17 offset (bytes) 1480 flags [MF] length: 1500 192.138.2.2 > 192.138.1.1) Payload Fragment [1472:2952] ns3::EthernetTrailer (fcs=0)
r 5.57777 /NodeList/0/DeviceList/0/$ns3::CsmaNetDevice/MacRx ns3::EthernetHeader ( length/type=0x800, source=00:00:00:00:00:02, destination=00:00:00:00:00:01) ns3::Ipv4Header (tos 0x0 DSCP Default ECN Not-ECT ttl 61 id 11 protocol 17 offset (bytes) 2960 flags [none] length: 68 192.138.2.2 > 192.138.1.1) Payload Fragment [2952:3000] ns3::EthernetTrailer (fcs=0)
r 5.62523 /NodeList/0/DeviceList/0/$ns3::CsmaNetDevice/MacRx ns3::EthernetHeader ( length/type=0x800, source=00:00:00:00:00:02, destination=00:00:00:00:00:01) ns3::Ipv4Header (tos 0x0 DSCP Default ECN Not-ECT ttl 61 id 12 protocol 17 offset (bytes) 0 flags [MF] length: 1500 192.138.2.2 > 192.138.1.1) ns3::UdpHeader (length: 3008 49153 > 2500) Payload Fragment [0:1472] ns3::EthernetTrailer (fcs=0)
r 5.62574 /NodeList/0/DeviceList/0/$ns3::CsmaNetDevice/MacRx ns3::EthernetHeader ( length/type=0x800, source=00:00:00:00:00:02, destination=00:00:00:00:00:01) ns3::Ipv4Header (tos 0x0 DSCP Default ECN Not-ECT ttl 61 id 12 protocol 17 offset (bytes) 1480 flags [MF] length: 1500 192.138.2.2 > 192.138.1.1) Payload Fragment [1472:2952] ns3::EthernetTrailer (fcs=0)
r 5.62577 /NodeList/0/DeviceList/0/$ns3::CsmaNetDevice/MacRx ns3::EthernetHeader ( length/type=0x800, source=00:00:00:00:00:02, destination=00:00:00:00:00:01) ns3::Ipv4Header (tos 0x0 DSCP Default ECN Not-ECT ttl 61 id 12 protocol 17 offset (bytes) 2960 flags [none] length: 68 192.138.2.2 > 192.138.1.1) Payload Fragment [2952:3000] ns3::EthernetTrailer (fcs=0)
r 5.67323 /NodeList/0/DeviceList/0/$ns3::CsmaNetDevice/MacRx ns3::EthernetHeader ( length/type=0x800, source=00:00:00:00:00:02, destination=00:00:00:00:00:01) ns3::Ipv4Header (tos 0x0 DSCP Default ECN Not-ECT ttl 61 id 13 protocol 17 offset (bytes) 0 flags [MF] length: 1500 192.138.2.2 > 192.138.1.1) ns3::UdpHeader (length: 3008 49153 > 2500) Payload Fragment [0:1472] ns3::EthernetTrailer (fcs=0)
r 5.67374 /NodeList/0/DeviceList/0/$ns3::CsmaNetDevice/MacRx ns3::EthernetHeader ( length/type=0x800, source=00:00:00:00:00:02, destination=00:00:00:00:00:01) ns3::Ipv4Header (tos 0x0 DSCP Default ECN Not-ECT ttl 61 id 13 protocol 17 offset (bytes) 1480 flags [MF] length: 1500 192.138.2.2 > 192.138.1.1) Payload Fragment [1472:2952] ns3::EthernetTrailer (fcs=0)
r 5.67378 /NodeList/0/DeviceList/0/$ns3::CsmaNetDevice/MacRx ns3::EthernetHeader ( length/type=0x800, source=00:00:00:00:00:02, destination=00:00:00:00:00:01) ns3::Ipv4Header (tos 0x0 DSCP Default ECN Not-ECT ttl 61 id 13 protocol 17 offset (bytes) 2960 flags [none] length: 68 192.138.2.2 > 192.138.1.1) Payload Fragment [2952:3000] ns3::EthernetTrailer (fcs=0)
r 5.72123 /NodeList/0/DeviceList/0/$ns3::CsmaNetDevice/MacRx ns3::EthernetHeader ( length/type=0x800, source=00:00:00:00:00:02, destination=00:00:00:00:00:01) ns3::Ipv4Header (tos 0x0 DSCP Default ECN Not-ECT ttl 61 id 14 protocol 17 offset (bytes) 0 flags [MF] length: 1500 192.138.2.2 > 192.138.1.1) ns3::UdpHeader (length: 3008 49153 > 2500) Payload Fragment [0:1472] ns3::EthernetTrailer (fcs=0)
r 5.72173 /NodeList/0/DeviceList/0/$ns3::CsmaNetDevice/MacRx ns3::EthernetHeader ( length/type=0x800, source=00:00:00:00:00:02, destination=00:00:00:00:00:01) ns3::Ipv4Header (tos 0x0 DSCP Default ECN Not-ECT ttl 61 id 14 protocol 17 offset (bytes) 1480 flags [MF] length: 1500 192.138.2.2 > 192.138.1.1) Payload Fragment [1472:2952] ns3::EthernetTrailer (fcs=0)
r 5.72177 /NodeList/0/DeviceList/0/$ns3::CsmaNetDevice/MacRx ns3::EthernetHeader ( length/type=0x800, source=00:00:00:00:00:02, destination=00:00:00:00:00:01) ns3::Ipv4Header (tos 0x0 DSCP Default ECN Not-ECT ttl 61 id 14 protocol 17 offset (bytes) 2960 flags [none] length: 68 192.138.2.2 > 192.138.1.1) Payload Fragment [2952:3000] ns3::EthernetTrailer (fcs=0)
r 5.76923 /NodeList/0/DeviceList/0/$ns3::CsmaNetDevice/MacRx ns3::EthernetHeader ( length/type=0x800, source=00:00:00:00:00:02, destination=00:00:00:00:00:01) ns3::Ipv4Header (tos 0x0 DSCP Default ECN Not-ECT ttl 61 id 15 protocol 17 offset (bytes) 0 flags [MF] length: 1500 192.138.2.2 > 192.138.1.1) ns3::UdpHeader (length: 3008 49153 > 2500) Payload Fragment [0:1472] ns3::EthernetTrailer (fcs=0)
r 5.76974 /NodeList/0/DeviceList/0/$ns3::CsmaNetDevice/MacRx ns3::EthernetHeader ( length/type=0x800, source=00:00:00:00:00:02, destination=00:00:00:00:00:01) ns3::Ipv4Header (tos 0x0 DSCP Default ECN Not-ECT ttl 61 id 15 protocol 17 offset (bytes) 1480 flags [MF] length: 1500 192.138.2.2 > 192.138.1.1) Payload Fragment [1472:2952] ns3::EthernetTrailer (fcs=0)
r 5.76979 /NodeList/0/DeviceList/0/$ns3::CsmaNetDevice/MacRx ns3::EthernetHeader ( length/type=0x800, source=00:00:00:00:00:02, destination=00:00:00:00:00:01) ns3::Ipv4Header (tos 0x0 DSCP Default ECN Not-ECT ttl 61 id 15 protocol 17 offset (bytes) 2960 flags [none] length: 68 192.138.2.2 > 192.138.1.1) Payload Fragment [2952:3000] ns3::EthernetTrailer (fcs=0)
r 5.81723 /NodeList/0/DeviceList/0/$ns3::CsmaNetDevice/MacRx ns3::EthernetHeader ( length/type=0x800, source=00:00:00:00:00:02, destination=00:00:00:00:00:01) ns3::Ipv4Header (tos 0x0 DSCP Default ECN Not-ECT ttl 61 id 16 protocol 17 offset (bytes) 0 flags [MF] length: 1500 192.138.2.2 > 192.138.1.1) ns3::UdpHeader (length: 3008 49153 > 2500) Payload Fragment [0:1472] ns3::EthernetTrailer (fcs=0)
r 5.81773 /NodeList/0/DeviceList/0/$ns3::CsmaNetDevice/MacRx ns3::EthernetHeader ( length/type=0x800, source=00:00:00:00:00:02, destination=00:00:00:00:00:01) ns3::Ipv4Header (tos 0x0 DSCP Default ECN Not-ECT ttl 61 id 16 protocol 17 offset (bytes) 1480 flags [MF] length: 1500 192.138.2.2 > 192.138.1.1) Payload Fragment [1472:2952] ns3::EthernetTrailer (fcs=0)
r 5.81777 /NodeList/0/DeviceList/0/$ns3::CsmaNetDevice/MacRx ns3::EthernetHeader ( length/type=0x800, source=00:00:00:00:00:02, destination=00:00:00:00:00:01) ns3::Ipv4Header (tos 0x0 DSCP Default ECN Not-ECT ttl 61 id 16 protocol 17 offset (bytes) 2960 flags [none] length: 68 192.138.2.2 > 192.138.1.1) Payload Fragment [2952:3000] ns3::EthernetTrailer (fcs=0)
r 5.86523 /NodeList/0/DeviceList/0/$ns3::CsmaNetDevice/MacRx ns3::EthernetHeader ( length/type=0x800, source=00:00:00:00:00:02, destination=00:00:00:00:00:01) ns3::Ipv4Header (tos 0x0 DSCP Default ECN Not-ECT ttl 61 id 17 protocol 17 offset (bytes) 0 flags [MF] length: 1500 192.138.2.2 > 192.138.1.1) ns3::UdpHeader (length: 3008 49153 > 2500) Payload Fragment [0:1472] ns3::EthernetTrailer (fcs=0)
r 5.86574 /NodeList/0/DeviceList/0/$ns3::CsmaNetDevice/MacRx ns3::EthernetHeader ( length/type=0x800, source=00:00:00:00:00:02, destination=00:00:00:00:00:01) ns3::Ipv4Header (tos 0x0 DSCP Default ECN Not-ECT ttl 61 id 17 protocol 17 offset (bytes) 1480 flags [MF] length: 1500 192.138.2.2 > 192.138.1.1) Payload Fragment [1472:2952] ns3::EthernetTrailer (fcs=0)
r 5.86578 /NodeList/0/DeviceList/0/$ns3::CsmaNetDevice/MacRx ns3::EthernetHeader ( length/type=0x800, source=00:00:00:00:00:02, destination=00:00:00:00:00:01) ns3::Ipv4Header (tos 0x0 DSCP Default ECN Not-ECT ttl 61 id 17 protocol 17 offset (bytes) 2960 flags [none] length: 68 192.138.2.2 > 192.138.1.1) Payload Fragment [2952:3000] ns3::EthernetTrailer (fcs=0)
r 5.91323 /NodeList/0/DeviceList/0/$ns3::CsmaNetDevice/MacRx ns3::EthernetHeader ( length/type=0x800, source=00:00:00:00:00:02, destination=00:00:00:00:00:01) ns3::Ipv4Header (tos 0x0 DSCP Default ECN Not-ECT ttl 61 id 18 protocol 17 offset (bytes) 0 flags [MF] length: 1500 192.138.2.2 > 192.138.1.1) ns3::UdpHeader (length: 3008 49153 > 2500) Payload Fragment [0:1472] ns3::EthernetTrailer (fcs=0)
r 5.91374 /NodeList/0/DeviceList/0/$ns3::CsmaNetDevice/MacRx ns3::EthernetHeader ( length/type=0x800, source=00:00:00:00:00:02, destination=00:00:00:00:00:01) ns3::Ipv4Header (tos 0x0 DSCP Default ECN Not-ECT ttl 61 id 18 protocol 17 offset (bytes) 1480 flags [MF] length: 1500 192.138.2.2 > 192.138.1.1) Payload Fragment [1472:2952] ns3::EthernetTrailer (fcs=0)
r 5.91378 /NodeList/0/DeviceList/0/$ns3::CsmaNetDevice/MacRx ns3::EthernetHeader ( length/type=0x800, source=00:00:00:00:00:02, destination=00:00:00:00:00:01) ns3::Ipv4Header (tos 0x0 DSCP Default ECN Not-ECT ttl 61 id 18 protocol 17 offset (bytes) 2960 flags [none] length: 68 192.138.2.2 > 192.138.1.1) Payload Fragment [2952:3000] ns3::EthernetTrailer (fcs=0)
r 5.96123 /NodeList/0/DeviceList/0/$ns3::CsmaNetDevice/MacRx ns3::EthernetHeader ( length/type=0x800, source=00:00:00:00:00:02, destination=00:00:00:00:00:01) ns3::Ipv4Header (tos 0x0 DSCP Default ECN Not-ECT ttl 61 id 19 protocol 17 offset (bytes) 0 flags [MF] length: 1500 192.138.2.2 > 192.138.1.1) ns3::UdpHeader (length: 3008 49153 > 2500) Payload Fragment [0:1472] ns3::EthernetTrailer (fcs=0)
r 5.96173 /NodeList/0/DeviceList/0/$ns3::CsmaNetDevice/MacRx ns3::EthernetHeader ( length/type=0x800, source=00:00:00:00:00:02, destination=00:00:00:00:00:01) ns3::Ipv4Header (tos 0x0 DSCP Default ECN Not-ECT ttl 61 id 19 protocol 17 offset (bytes) 1480 flags [MF] length: 1500 192.138.2.2 > 192.138.1.1) Payload Fragment [1472:2952] ns3::EthernetTrailer (fcs=0)
r 5.96177 /NodeList/0/DeviceList/0/$ns3::CsmaNetDevice/MacRx ns3::EthernetHeader ( length/type=0x800, source=00:00:00:00:00:02, destination=00:00:00:00:00:01) ns3::Ipv4Header (tos 0x0 DSCP Default ECN Not-ECT ttl 61 id 19 protocol 17 offset (bytes) 2960 flags [none] length: 68 192.138.2.2 > 192.138.1.1) Payload Fragment [2952:3000] ns3::EthernetTrailer (fcs=0)
r 6.00923 /NodeList/0/DeviceList/0/$ns3::CsmaNetDevice/MacRx ns3::EthernetHeader ( length/type=0x800, source=00:00:00:00:00:02, destination=00:00:00:00:00:01) ns3::Ipv4Header (tos 0x0 DSCP Default ECN Not-ECT ttl 61 id 20 protocol 17 offset (bytes) 0 flags [MF] length: 1500 192.138.2.2 > 192.138.1.1) ns3::UdpHeader (length: 3008 49153 > 2500) Payload Fragment [0:1472] ns3::EthernetTrailer (fcs=0)
r 6.00974 /NodeList/0/DeviceList/0/$ns3::CsmaNetDevice/MacRx ns3::EthernetHeader ( length/type=0x800, source=00:00:00:00:00:02, destination=00:00:00:00:00:01) ns3::Ipv4Header (tos 0x0 DSCP Default ECN Not-ECT ttl 61 id 20 protocol 17 offset (bytes) 1480 flags [MF] length: 1500 192.138.2.2 > 192.138.1.1) Payload Fragment [1472:2952] ns3::EthernetTrailer (fcs=0)
r 6.00978 /NodeList/0/DeviceList/0/$ns3::CsmaNetDevice/MacRx ns3::EthernetHeader ( length/type=0x800, source=00:00:00:00:00:02, destination=00:00:00:00:00:01) ns3::Ipv4Header (tos 0x0 DSCP Default ECN Not-ECT ttl 61 id 20 protocol 17 offset (bytes) 2960 flags [none] length: 68 192.138.2.2 > 192.138.1.1) Payload Fragment [2952:3000] ns3::EthernetTrailer (fcs=0)
r 6.05723 /NodeList/0/DeviceList/0/$ns3::CsmaNetDevice/MacRx ns3::EthernetHeader ( length/type=0x800, source=00:00:00:00:00:02, destination=00:00:00:00:00:01) ns3::Ipv4Header (tos 0x0 DSCP Default ECN Not-ECT ttl 61 id 21 protocol 17 offset (bytes) 0 flags [MF] length: 1500 192.138.2.2 > 192.138.1.1) ns3::UdpHeader (length: 3008 49153 > 2500) Payload Fragment [0:1472] ns3::EthernetTrailer (fcs=0)
r 6.05773 /NodeList/0/DeviceList/0/$ns3::CsmaNetDevice/MacRx ns3::EthernetHeader ( length/type=0x800, source=00:00:00:00:00:02, destination=00:00:00:00:00:01) ns3::Ipv4Header (tos 0x0 DSCP Default ECN Not-ECT ttl 61 id 21 protocol 17 offset (bytes) 1480 flags [MF] length: 1500 192.138.2.2 > 192.138.1.1) Payload Fragment [1472:2952] ns3::EthernetTrailer (fcs=0)
r 6.05777 /NodeList/0/DeviceList/0/$ns3::CsmaNetDevice/MacRx ns3::EthernetHeader ( length/type=0x800, source=00:00:00:00:00:02, destination=00:00:00:00:00:01) ns3::Ipv4Header (tos 0x0 DSCP Default ECN Not-ECT ttl 61 id 21 protocol 17 offset (bytes) 2960 flags [none] length: 68 192.138.2.2 > 192.138.1.1) Payload Fragment [2952:3000] ns3::EthernetTrailer (fcs=0)
r 6.10523 /NodeList/0/DeviceList/0/$ns3::CsmaNetDevice/MacRx ns3::EthernetHeader ( length/type=0x800, source=00:00:00:00:00:02, destination=00:00:00:00:00:01) ns3::Ipv4Header (tos 0x0 DSCP Default ECN Not-ECT ttl 61 id 22 protocol 17 offset (bytes) 0 flags [MF] length: 1500 192.138.2.2 > 192.138.1.1) ns3::UdpHeader (length: 3008 49153 > 2500) Payload Fragment [0:1472] ns3::EthernetTrailer (fcs=0)
r 6.10574 /NodeList/0/DeviceList/0/$ns3::CsmaNetDevice/MacRx ns3::EthernetHeader ( length/type=0x800, source=00:00:00:00:00:02, destination=00:00:00:00:00:01) ns3::Ipv4Header (tos 0x0 DSCP Default ECN Not-ECT ttl 61 id 22 protocol 17 offset (bytes) 1480 flags [MF] length: 1500 192.138.2.2 > 192.138.1.1) Payload Fragment [1472:2952] ns3::EthernetTrailer (fcs=0)
r 6.10578 /NodeList/0/DeviceList/0/$ns3::CsmaNetDevice/MacRx ns3::EthernetHeader ( length/type=0x800, source=00:00:00:00:00:02, destination=00:00:00:00:00:01) ns3::Ipv4Header (tos 0x0 DSCP Default ECN Not-ECT ttl 61 id 22 protocol 17 offset (bytes) 2960 flags [none] length: 68 192.138.2.2 > 192.138.1.1) Payload Fragment [2952:3000] ns3::EthernetTrailer (fcs=0)
r 6.15323 /NodeList/0/DeviceList/0/$ns3::CsmaNetDevice/MacRx ns3::EthernetHeader ( length/type=0x800, source=00:00:00:00:00:02, destination=00:00:00:00:00:01) ns3::Ipv4Header (tos 0x0 DSCP Default ECN Not-ECT ttl 61 id 23 protocol 17 offset (bytes) 0 flags [MF] length: 1500 192.138.2.2 > 192.138.1.1) ns3::UdpHeader (length: 3008 49153 > 2500) Payload Fragment [0:1472] ns3::EthernetTrailer (fcs=0)
r 6.15375 /NodeList/0/DeviceList/0/$ns3::CsmaNetDevice/MacRx ns3::EthernetHeader ( length/type=0x800, source=00:00:00:00:00:02, destination=00:00:00:00:00:01) ns3::Ipv4Header (tos 0x0 DSCP Default ECN Not-ECT ttl 61 id 23 protocol 17 offset (bytes) 1480 flags [MF] length: 1500 192.138.2.2 > 192.138.1.1) Payload Fragment [1472:2952] ns3::EthernetTrailer (fcs=0)
r 6.15379 /NodeList/0/DeviceList/0/$ns3::CsmaNetDevice/MacRx ns3::EthernetHeader ( length/type=0x800, source=00:00:00:00:00:02, destination=00:00:00:00:00:01) ns3::Ipv4Header (tos 0x0 DSCP Default ECN Not-ECT ttl 61 id 23 protocol 17 offset (bytes) 2960 flags [none] length: 68 192.138.2.2 > 192.138.1.1) Payload Fragment [2952:3000] ns3::EthernetTrailer (fcs=0)
r 6.20123 /NodeList/0/DeviceList/0/$ns3::CsmaNetDevice/MacRx ns3::EthernetHeader ( length/type=0x800, source=00:00:00:00:00:02, destination=00:00:00:00:00:01) ns3::Ipv4Header (tos 0x0 DSCP Default ECN Not-ECT ttl 61 id 24 protocol 17 offset (bytes) 0 flags [MF] length: 1500 192.138.2.2 > 192.138.1.1) ns3::UdpHeader (length: 3008 49153 > 2500) Payload Fragment [0:1472] ns3::EthernetTrailer (fcs=0)
r 6.20174 /NodeList/0/DeviceList/0/$ns3::CsmaNetDevice/MacRx ns3::EthernetHeader ( length/type=0x800, source=00:00:00:00:00:02, destination=00:00:00:00:00:01) ns3::Ipv4Header (tos 0x0 DSCP Default ECN Not-ECT ttl 61 id 24 protocol 17 offset (bytes) 1480 flags [MF] length: 1500 192.138.2.2 > 192.138.1.1) Payload Fragment [1472:2952] ns3::EthernetTrailer (fcs=0)
r 6.20177 /NodeList/0/DeviceList/0/$ns3::CsmaNetDevice/MacRx ns3::EthernetHeader ( length/type=0x800, source=00:00:00:00:00:02, destination=00:00:00:00:00:01) ns3::Ipv4Header (tos 0x0 DSCP Default ECN Not-ECT ttl 61 id 24 protocol 17 offset (bytes) 2960 flags [none] length: 68 192.138.2.2 > 192.138.1.1) Payload Fragment [2952:3000] ns3::EthernetTrailer (fcs=0)